default_name
 18019
  39.6690000  52.2213000  35.8453000  38.8610000  52.6933000  35.4673000
  40.2050000  52.8533000  36.4263000  39.3350000  51.4543000  36.4273000
  40.5170000  51.6603000  34.7663000  40.8830000  52.4613000  34.1243000
  41.7180000  50.9373000  35.4013000  42.3710000  51.7043000  35.8183000
  41.3710000  50.2983000  36.2153000  42.5510000  50.0803000  34.4433000
  41.9710000  49.2073000  34.1393000  42.8100000  50.6643000  33.5583000
  43.8380000  49.6173000  35.1383000  44.4660000  50.4833000  35.3533000
  43.5990000  49.0963000  36.0683000  44.5660000  48.6603000  34.1943000
  44.0000000  47.7243000  34.1153000  44.5980000  49.0923000  33.1883000
  45.9500000  48.3733000  34.6283000  45.9700000  47.8133000  35.4643000
  46.3720000  47.8263000  33.8673000  46.5010000  49.2103000  34.7203000
  39.6820000  50.7193000  33.9093000  38.9070000  49.9573000  34.4793000
  39.8320000  50.7603000  32.5843000  40.5100000  51.3833000  32.1693000
  39.3120000  49.7043000  31.6983000  38.5700000  49.1113000  32.2293000
  38.6150000  50.2673000  30.4453000  39.3300000  50.8383000  29.8533000
  38.0370000  49.1363000  29.5843000  37.3260000  48.5423000  30.1623000
  37.5280000  49.5533000  28.7163000  38.8340000  48.4833000  29.2273000
  37.4570000  51.1913000  30.8443000  37.8300000  52.0593000  31.3843000
  36.9440000  51.5423000  29.9493000  36.7530000  50.6453000  31.4683000
  40.4790000  48.7953000  31.3403000  41.4600000  49.2623000  30.7693000
  40.4090000  47.5353000  31.7553000  39.5370000  47.2093000  32.1633000
  41.4260000  46.5463000  31.4203000  42.4200000  46.9913000  31.5213000
  41.3300000  45.3403000  32.3553000  40.2920000  45.1323000  32.6053000
  41.7100000  44.4833000  31.8053000  42.1300000  45.4513000  33.6293000
  41.6050000  46.1093000  34.7543000  40.6250000  46.5613000  34.7043000
  42.3560000  46.1633000  35.9423000  41.9600000  46.6553000  36.8183000
  43.6170000  45.5443000  36.0143000  44.1750000  45.5743000  36.9393000
  44.1360000  44.8773000  34.8913000  45.1000000  44.3913000  34.9363000
  43.3920000  44.8393000  33.7003000  43.7810000  44.3293000  32.8323000
  41.2760000  46.0663000  29.9793000  40.1700000  45.8033000  29.4983000
  42.4090000  45.8343000  29.3213000  43.2930000  46.1053000  29.7593000
  42.4340000  44.9973000  28.1273000  41.6680000  45.3353000  27.4293000
  43.4090000  45.0773000  27.6473000  42.1830000  43.5343000  28.5013000
  42.5460000  43.0933000  29.5903000  41.6200000  42.7443000  27.5793000
  41.3100000  43.1713000  26.7213000  41.3660000  41.3063000  27.8033000
  40.6190000  41.2033000  28.5963000  40.8220000  40.6903000  26.5073000
  39.8820000  41.1823000  26.2543000  41.5350000  40.8783000  25.7033000
  40.5780000  39.1763000  26.6283000  41.5170000  38.6553000  26.8213000
  39.8970000  38.9863000  27.4593000  39.9620000  38.6143000  25.3423000
  39.7550000  37.5533000  25.4743000  39.0020000  39.1053000  25.1693000
  40.8290000  38.8203000  24.1623000  40.6420000  39.6293000  23.5993000
  41.7580000  37.9943000  23.7093000  42.0830000  36.8943000  24.3213000
  41.6480000  36.6513000  25.2023000  42.7190000  36.2383000  23.8773000
  42.3870000  38.2453000  22.5973000  42.1940000  39.0553000  22.0413000
  43.0540000  37.5573000  22.2873000  42.6150000  40.5633000  28.2933000
  42.5800000  39.8913000  29.3203000  43.7200000  40.6773000  27.5553000
  43.6840000  41.2203000  26.7113000  44.9500000  39.9643000  27.9073000
  44.6860000  38.9403000  28.1693000  45.8900000  39.9103000  26.7003000
  46.0640000  40.9183000  26.3223000  46.8500000  39.5133000  27.0353000
  45.2910000  38.8573000  25.3513000  45.6480000  40.5403000  29.1483000
  46.2110000  39.7833000  29.9353000  45.5540000  41.8533000  29.3623000
  45.0310000  42.4193000  28.7153000  46.0500000  42.5073000  30.5773000
  47.1200000  42.3193000  30.6813000  45.8190000  44.0203000  30.4273000
  46.2840000  44.3613000  29.4993000  44.7470000  44.1883000  30.3493000
  46.3730000  44.8613000  31.5873000  46.0490000  44.4353000  32.5373000
  47.4630000  44.8073000  31.5623000  45.9290000  46.3313000  31.5363000
  44.9650000  46.6493000  30.8013000  46.4980000  47.1193000  32.3363000
  45.3470000  41.9523000  31.8273000  45.9970000  41.5883000  32.8113000
  44.0150000  41.8233000  31.7643000  43.5290000  42.1633000  30.9393000
  43.2210000  41.2763000  32.8583000  43.4750000  41.8303000  33.7613000
  41.7270000  41.4453000  32.5563000  41.5060000  42.4843000  32.3523000
  41.4760000  40.8693000  31.6633000  40.8460000  40.9723000  33.7243000
  41.0770000  39.9413000  33.9833000  41.0420000  41.8553000  34.9633000
  40.9380000  42.9053000  34.6923000  40.3020000  41.6033000  35.7203000
  42.0290000  41.6853000  35.3903000  39.3880000  41.0133000  33.2983000
  39.2430000  40.3633000  32.4363000  38.7650000  40.6613000  34.1173000
  39.1200000  42.0353000  33.0413000  43.5340000  39.8023000  33.1113000
  43.7110000  39.4063000  34.2633000  43.6260000  39.0043000  32.0433000
  43.4240000  39.3963000  31.1303000  43.9920000  37.5963000  32.1343000
  43.2200000  37.0683000  32.6973000  44.0550000  37.0173000  30.7173000
  44.8460000  37.4993000  30.1443000  44.2510000  35.9483000  30.7783000
  43.1040000  37.1723000  30.2083000  45.3220000  37.4113000  32.8863000
  45.4170000  36.5613000  33.7723000  46.3260000  38.2443000  32.5883000
  46.1940000  38.9213000  31.8433000  47.6110000  38.2093000  33.2793000
  47.9920000  37.1863000  33.2543000  48.6060000  39.1063000  32.5323000
  48.2640000  40.1413000  32.5413000  49.5860000  39.0413000  33.0063000
  48.6960000  38.7743000  31.4973000  47.4800000  38.6153000  34.7573000
  48.0620000  37.9683000  35.6293000  46.7020000  39.6583000  35.0723000
  46.2290000  40.1603000  34.3273000  46.4660000  40.0533000  36.4633000
  47.4300000  40.2143000  36.9393000  45.6940000  41.3783000  36.4963000
  44.7050000  41.2473000  36.0513000  45.5760000  41.7063000  37.5303000
  46.2340000  42.1393000  35.9343000  45.7600000  38.9453000  37.2643000
  46.2060000  38.5763000  38.3463000  44.7060000  38.3443000  36.7183000
  44.3910000  38.6553000  35.8053000  43.9700000  37.2663000  37.3813000
  43.6710000  37.6013000  38.3763000  42.7110000  36.9613000  36.5723000
  42.9690000  36.8463000  35.5203000  42.2680000  36.0313000  36.9313000
  41.6710000  38.0733000  36.7033000  41.4330000  38.2193000  37.7563000
  42.0670000  39.0083000  36.3053000  40.1620000  37.6423000  35.8093000
  38.9670000  38.7133000  36.6453000  39.2550000  39.7563000  36.5273000
  37.9810000  38.5593000  36.2073000  38.9260000  38.4623000  37.7053000
  44.8190000  36.0043000  37.5713000  44.7350000  35.3683000  38.6283000
  45.6890000  35.6803000  36.6003000  45.6520000  36.2133000  35.7353000
  46.6930000  34.6143000  36.7203000  46.1890000  33.6613000  36.8903000
  47.5130000  34.5233000  35.4163000  46.8430000  34.3743000  34.5683000
  48.0210000  35.4723000  35.2563000  48.5900000  33.4173000  35.4303000
  49.4840000  33.7893000  34.9253000  48.8850000  33.1893000  36.4533000
  48.1390000  32.1153000  34.7563000  48.6050000  31.2663000  35.2633000
  47.0580000  32.0073000  34.8503000  48.5800000  32.1033000  33.2883000
  48.5830000  33.1293000  32.9103000  49.6090000  31.7303000  33.2243000
  47.6700000  31.2763000  32.4653000  46.7520000  31.6893000  32.4283000
  48.0470000  31.1583000  31.5323000  47.5600000  30.3563000  32.8913000
  47.5940000  34.8743000  37.9273000  47.7140000  34.0073000  38.7903000
  48.1930000  36.0693000  38.0203000  48.0330000  36.7423000  37.2783000
  49.1240000  36.3843000  39.1183000  49.8370000  35.5583000  39.1713000
  49.9460000  37.6513000  38.8323000  50.9090000  37.5033000  39.3243000
  50.1400000  37.7163000  37.7593000  49.3740000  38.9873000  39.3413000
  48.5050000  39.2763000  38.7593000  49.0900000  38.9033000  40.3903000
  50.4520000  40.0723000  39.2383000  50.1230000  40.9543000  39.7903000
  51.3680000  39.7183000  39.7163000  50.7250000  40.4013000  37.8263000
  51.3530000  39.7913000  37.3303000  50.0350000  41.2683000  37.1123000
  49.2430000  42.1393000  37.6713000  49.1690000  42.1513000  38.6723000
  48.6960000  42.7683000  37.1163000  50.0940000  41.2603000  35.8123000
  50.6940000  40.6073000  35.3413000  49.5410000  41.9053000  35.2783000
  48.4450000  36.3833000  40.4873000  49.0840000  36.0603000  41.4823000
  47.1470000  36.6853000  40.5413000  46.7060000  37.0373000  39.6983000
  46.3510000  36.6053000  41.7713000  47.0180000  36.8293000  42.6053000
  45.2710000  37.6883000  41.7723000  44.7090000  37.6743000  40.8373000
  44.6020000  37.4943000  42.6003000  45.8320000  39.0563000  42.0303000
  46.0500000  40.0553000  41.0843000  46.5180000  41.1063000  41.7743000
  46.7140000  42.0843000  41.3543000  46.6240000  40.8133000  43.0793000
  46.7800000  41.5093000  43.8103000  46.1910000  39.5213000  43.2613000
  46.1110000  38.9933000  44.1993000  45.7940000  35.2093000  42.0923000
  45.0230000  35.0573000  43.0453000  46.1960000  34.1783000  41.3473000
  46.8110000  34.3633000  40.5603000  45.9010000  32.7753000  41.6433000
  46.5640000  32.1563000  41.0383000  46.1120000  32.5683000  42.6923000
  44.4670000  32.3433000  41.3413000  43.9510000  31.4723000  42.0433000
  43.7970000  32.9863000  40.3753000  44.2640000  33.7293000  39.8663000
  42.4490000  32.5803000  39.9513000  41.9140000  32.1963000  40.8153000
  41.6590000  33.7753000  39.3953000  42.2750000  34.3023000  38.6673000
  40.7870000  33.3893000  38.8633000  41.1500000  34.7663000  40.4553000
  41.9960000  35.2083000  40.9813000  40.3810000  35.8693000  39.7323000
  39.5940000  35.4323000  39.1153000  39.9160000  36.5383000  40.4523000
  41.0610000  36.4333000  39.1003000  40.2010000  34.1323000  41.4823000
  40.7370000  33.4283000  42.1153000  39.7580000  34.9003000  42.1133000
  39.3990000  33.6073000  40.9613000  42.4360000  31.4253000  38.9443000
  41.3970000  30.7923000  38.7843000  43.5510000  31.1183000  38.2743000
  44.4070000  31.6033000  38.4763000  43.5660000  29.9973000  37.3283000
  42.7170000  30.1423000  36.6593000  44.8330000  29.9903000  36.4663000
  45.0100000  31.0013000  36.0923000  45.6910000  29.6973000  37.0733000
  44.6970000  29.0473000  35.2613000  43.5500000  28.6373000  34.9413000
  45.7280000  28.8783000  34.5723000  43.3720000  28.6483000  38.0403000
  44.1610000  28.2763000  38.9093000  42.2960000  27.9383000  37.6833000
  41.6920000  28.3603000  36.9933000  41.7910000  26.7183000  38.3333000
  40.9080000  26.4143000  37.7733000  42.8000000  25.5573000  38.1753000
  42.9640000  25.3633000  37.1153000  43.7540000  25.8373000  38.6163000
  42.3280000  24.2653000  38.8303000  41.2860000  23.7203000  38.5103000
  43.0470000  23.7573000  39.8093000  42.7020000  22.9093000  40.2183000
  43.8910000  24.2133000  40.0963000  41.2710000  26.9233000  39.7743000
  40.9850000  25.9583000  40.4873000  41.0880000  28.1553000  40.2553000
  41.2490000  28.9573000  39.6543000  40.6040000  28.3433000  41.6223000
  41.3000000  27.8193000  42.2763000  40.6200000  29.8113000  42.0333000
  41.5930000  30.2293000  41.7823000  39.8580000  30.3623000  41.4783000
  40.4000000  29.9593000  43.5243000  41.4860000  29.7513000  44.3953000
  42.4650000  29.5353000  43.9803000  41.3060000  29.8453000  45.7873000
  42.1400000  29.6803000  46.4503000  40.0270000  30.1383000  46.3073000
  39.8620000  30.2293000  47.6523000  40.6730000  30.4783000  48.0983000
  38.9350000  30.3333000  45.4363000  37.9590000  30.5353000  45.8513000
  39.1220000  30.2383000  44.0423000  38.2910000  30.3643000  43.3613000
  39.2120000  27.7283000  41.8183000  38.2760000  28.0363000  41.0833000
  39.0920000  26.8333000  42.8133000  39.9340000  26.6233000  43.3233000
  37.8820000  26.0233000  43.0723000  38.1460000  25.2033000  43.7363000
  36.7840000  26.8673000  43.7723000  36.6460000  27.7953000  43.2173000
  35.8310000  26.3363000  43.7413000  37.0550000  27.2123000  45.2473000
  38.0500000  27.6443000  45.3343000  36.3410000  27.9823000  45.5393000
  36.8730000  26.0393000  46.2363000  36.1020000  26.3043000  46.9633000
  36.5290000  25.1543000  45.6993000  38.1420000  25.7403000  46.9293000
  38.7500000  25.0933000  46.4583000  38.6990000  26.5033000  47.8533000
  39.9850000  26.7013000  47.8153000  40.5450000  26.2653000  47.1083000
  40.3980000  27.2573000  48.5363000  38.0290000  27.1003000  48.7953000
  37.0210000  27.0803000  48.7363000  38.4390000  27.8213000  49.3533000
  37.3840000  25.3083000  41.8003000  36.1900000  25.0953000  41.6373000
  38.3140000  24.9073000  40.9323000  39.2830000  25.1573000  41.0933000
  38.0310000  24.1373000  39.7203000  38.9160000  23.5583000  39.4593000
  37.2140000  23.4413000  39.9113000  37.6530000  24.9793000  38.5023000
  37.2580000  24.4093000  37.4883000  37.7610000  26.3113000  38.5703000
  38.0330000  26.7383000  39.4473000  37.4340000  27.2003000  37.4503000
  36.8540000  26.6483000  36.7113000  36.5590000  28.3563000  37.9273000
  37.0690000  28.8953000  38.7273000  36.4130000  29.0553000  37.1033000
  35.2070000  27.8993000  38.4113000  34.2130000  27.5603000  37.4733000
  34.4140000  27.6593000  36.4143000  32.9580000  27.1103000  37.9213000
  32.1850000  26.8683000  37.2093000  32.7050000  27.0123000  39.3033000
  31.4820000  26.6103000  39.7273000  31.1990000  25.8313000  39.2453000
  33.7030000  27.3443000  40.2423000  33.5140000  27.2393000  41.2983000
  34.9590000  27.7823000  39.7903000  35.7390000  28.0183000  40.5013000
  38.6820000  27.7333000  36.7653000  39.4290000  28.5313000  37.3313000
  38.8930000  27.3173000  35.5163000  38.2680000  26.6293000  35.1243000
  40.0110000  27.7983000  34.6973000  40.9390000  27.6013000  35.2343000
  40.0950000  27.0423000  33.3673000  41.0110000  27.3303000  32.8483000
  40.1360000  25.9703000  33.5693000  38.9810000  27.3273000  32.5403000
  38.9970000  26.7163000  31.7953000  39.9250000  29.3023000  34.4493000
  38.8400000  29.8923000  34.4423000  41.0790000  29.9163000  34.1883000
  41.9360000  29.3643000  34.2723000  41.2290000  31.3653000  34.0343000
  41.0900000  31.8253000  35.0113000  42.6650000  31.6243000  33.5623000
  43.3500000  31.1793000  34.2783000  42.8160000  31.1333000  32.6003000
  43.0170000  33.1103000  33.4283000  42.3730000  33.5883000  32.6913000
  42.8860000  33.8423000  34.7613000  43.4260000  33.3103000  35.5453000
  43.3090000  34.8373000  34.6513000  41.8360000  33.9443000  35.0383000
  44.4620000  33.2233000  32.9423000  44.5730000  32.6873000  32.0013000
  44.7100000  34.2713000  32.7813000  45.1270000  32.8043000  33.6943000
  40.2240000  32.0033000  33.0643000  39.7270000  33.1003000  33.3153000
  39.9000000  31.3073000  31.9723000  40.3100000  30.3933000  31.8603000
  38.9420000  31.7823000  30.9723000  39.3200000  32.6913000  30.5063000
  38.8320000  31.0143000  30.2093000  37.5540000  32.0763000  31.5493000
  36.9120000  33.0403000  31.1363000  37.1170000  31.2993000  32.5513000
  37.7390000  30.5853000  32.9133000  35.8550000  31.5383000  33.2523000
  35.0390000  31.5213000  32.5263000  35.6050000  30.4463000  34.3033000
  36.4590000  30.3333000  34.9663000  34.7560000  30.7403000  34.9143000
  35.2390000  29.1343000  33.6643000  34.1350000  28.9783000  33.1643000
  36.1380000  28.1783000  33.6473000  35.8970000  27.3353000  33.1613000
  37.0840000  28.3763000  33.9473000  35.8320000  32.9153000  33.9173000
  34.8550000  33.6473000  33.7733000  36.9170000  33.2793000  34.5983000
  37.6790000  32.6173000  34.6693000  37.0480000  34.5413000  35.3263000
  36.1870000  34.6763000  35.9813000  38.3060000  34.4453000  36.1873000
  39.1850000  34.2973000  35.5593000  38.4350000  35.3893000  36.7173000
  38.2300000  33.3573000  37.2043000  38.7950000  32.1303000  37.1373000
  39.4140000  31.7623000  36.3343000  38.4780000  31.4123000  38.2713000
  38.8330000  30.4743000  38.4403000  37.6520000  32.1333000  39.1083000
  37.0570000  31.8603000  40.3463000  37.2080000  30.9013000  40.8193000
  36.2490000  32.8493000  40.9383000  35.7590000  32.6603000  41.8803000
  36.0480000  34.0853000  40.2983000  35.3960000  34.8253000  40.7433000
  36.6660000  34.3543000  39.0663000  36.5120000  35.3073000  38.5823000
  37.4760000  33.3823000  38.4433000  37.1130000  35.7573000  34.4093000
  36.5060000  36.7883000  34.7023000  37.8170000  35.6313000  33.2823000
  38.3270000  34.7663000  33.1353000  37.9000000  36.6953000  32.2713000
  38.1360000  37.6343000  32.7743000  39.0210000  36.4003000  31.2573000
  38.8440000  35.4263000  30.8003000  39.0940000  37.4553000  30.1433000
  39.2630000  38.4423000  30.5753000  39.9160000  37.2143000  29.4673000
  38.1670000  37.4673000  29.5733000  40.3850000  36.3703000  31.9643000
  40.4020000  35.6023000  32.7363000  41.1680000  36.1433000  31.2423000
  40.5870000  37.3373000  32.4283000  36.5430000  36.8813000  31.5903000
  36.0640000  38.0053000  31.4603000  35.8870000  35.7813000  31.2163000
  36.3340000  34.8783000  31.3363000  34.5480000  35.8213000  30.6423000
  34.5830000  36.4133000  29.7263000  34.1250000  34.3993000  30.2693000
  34.9040000  33.9593000  29.6473000  34.0300000  33.7893000  31.1693000
  32.5690000  34.3553000  29.3533000  33.5410000  36.4953000  31.5913000
  32.7930000  37.3833000  31.1743000  33.5590000  36.1293000  32.8803000
  34.1960000  35.3973000  33.1773000  32.7010000  36.7453000  33.8903000
  31.6590000  36.5833000  33.6083000  32.9460000  36.0643000  35.2423000
  33.9720000  36.2313000  35.5713000  32.2630000  36.4773000  35.9873000
  32.7700000  34.9933000  35.1533000  32.9270000  38.2643000  33.9693000
  31.9770000  39.0323000  33.8533000  34.1840000  38.7133000  34.0573000
  34.9370000  38.0413000  34.1523000  34.5180000  40.1353000  34.0683000
  34.0220000  40.6103000  34.9173000  36.0320000  40.2603000  34.2483000
  36.5520000  39.7743000  33.4243000  36.3060000  41.3133000  34.2783000
  36.3280000  39.7923000  35.1863000  34.0510000  40.8613000  32.7953000
  33.6210000  42.0173000  32.8553000  34.1110000  40.1903000  31.6333000
  34.4850000  39.2433000  31.6413000  33.6500000  40.7723000  30.3693000
  34.1750000  41.7173000  30.2323000  33.9550000  39.8453000  29.1793000
  35.0290000  39.6943000  29.0923000  33.5030000  38.8713000  29.3483000
  33.3980000  40.3903000  27.8553000  33.5770000  39.6533000  27.0873000
  32.3160000  40.4943000  27.9263000  34.0110000  41.7193000  27.4003000
  33.9150000  42.4723000  28.1823000  35.0650000  41.5693000  27.1693000
  33.2490000  42.1913000  26.1593000  33.2590000  41.3883000  25.4163000
  32.2080000  42.3773000  26.4463000  33.8460000  43.4233000  25.5953000
  34.8330000  43.3063000  25.4213000  33.3720000  43.7143000  24.7523000
  33.7560000  44.1713000  26.2833000  32.1640000  41.0913000  30.4233000
  31.7750000  42.1983000  30.0643000  31.3340000  40.1333000  30.8183000
  31.7160000  39.2373000  31.1043000  29.8880000  40.3173000  30.7683000
  29.6650000  41.0013000  29.9503000  29.2130000  38.9903000  30.4163000
  29.5050000  38.2183000  31.1303000  28.1360000  39.1293000  30.4673000
  29.5480000  38.5693000  29.0013000  29.0420000  39.3173000  27.9203000
  28.3820000  40.1523000  28.1023000  29.4210000  39.0023000  26.6043000
  29.0390000  39.5773000  25.7733000  30.2990000  37.9303000  26.3653000
  30.5830000  37.6743000  25.3533000  30.7990000  37.1813000  27.4453000
  31.4580000  36.3443000  27.2753000  30.4290000  37.5043000  28.7613000
  30.8330000  36.9363000  29.5863000  29.3120000  41.0203000  32.0003000
  28.2610000  41.6363000  31.8543000  29.9930000  40.9773000  33.1493000
  30.7960000  40.3603000  33.2273000  29.5970000  41.7213000  34.3533000
  28.5150000  41.6483000  34.4923000  30.2740000  41.1243000  35.6063000
  31.3490000  41.0703000  35.4263000  30.1380000  41.8083000  36.4403000
  29.7750000  39.7263000  36.0433000  29.8960000  39.0243000  35.2183000
  30.4180000  39.3803000  36.8563000  28.3120000  39.6673000  36.5153000
  27.7050000  40.7403000  36.6753000  27.7720000  38.5363000  36.6563000
  29.9020000  43.2253000  34.2393000  29.0170000  44.0433000  34.4563000
  31.1260000  43.6153000  33.8573000  31.8290000  42.9053000  33.6913000
  31.5660000  45.0253000  33.9093000  30.7280000  45.6683000  34.1793000
  32.6330000  45.1813000  34.9913000  32.8990000  46.2343000  35.0903000
  32.2420000  44.8303000  35.9483000  33.7830000  44.4343000  34.6353000
  33.7370000  43.6123000  35.1613000  32.1340000  45.5693000  32.6013000
  32.5160000  46.7393000  32.5423000  32.2550000  44.7313000  31.5673000
  31.8780000  43.7973000  31.6633000  33.0200000  45.0433000  30.3643000
  33.1020000  44.1253000  29.7893000  32.2230000  46.0523000  29.5263000
  31.1670000  45.7853000  29.5493000  32.3330000  47.0473000  29.9593000
  32.6480000  46.0973000  28.0793000  33.3300000  45.2323000  27.5443000
  32.1960000  47.1013000  27.3733000  32.5510000  47.2343000  26.4473000
  31.6310000  47.7933000  27.8343000  34.4700000  45.4463000  30.6863000
  35.0040000  46.3903000  30.1063000  35.0920000  44.7413000  31.6403000
  34.5550000  44.0293000  32.1253000  36.4620000  44.9913000  32.1113000
  36.6460000  44.2753000  32.9103000  37.4860000  44.7163000  30.9993000
  37.4150000  45.5033000  30.2483000  38.4810000  44.7773000  31.4283000
  37.3930000  43.3703000  30.3213000  37.1720000  42.2083000  31.0793000
  37.0030000  42.2683000  32.1423000  37.2190000  40.9543000  30.4623000
  37.1000000  40.0673000  31.0573000  37.4470000  40.8493000  29.0823000
  37.4760000  39.8733000  28.6203000  37.6290000  42.0113000  28.3133000
  37.8090000  41.9413000  27.2533000  37.6180000  43.2723000  28.9373000
  37.8070000  44.1683000  28.3633000  36.6850000  46.3633000  32.7613000
  37.8040000  46.8823000  32.7743000  35.6380000  46.9593000  33.3283000
  34.7410000  46.4853000  33.3213000  35.7060000  48.2793000  33.9313000
  36.6200000  48.7773000  33.6083000  34.5340000  49.1043000  33.3893000
  34.4320000  48.9093000  32.3213000  33.6060000  48.8023000  33.8713000
  34.7330000  50.5913000  33.5873000  35.2760000  51.0473000  34.5833000
  34.3470000  51.3933000  32.6213000  34.4150000  52.3813000  32.7893000
  33.8610000  51.0163000  31.8283000  35.7420000  48.1733000  35.4593000
  34.7810000  47.7433000  36.0953000  36.8510000  48.6073000  36.0643000
  37.6130000  48.9623000  35.4963000  37.0030000  48.5793000  37.5283000
  36.7280000  47.5833000  37.8713000  38.4520000  48.8363000  37.9893000
  38.4820000  48.6013000  39.0513000  39.4930000  47.9563000  37.2963000
  39.5470000  48.1783000  36.2333000  40.4640000  48.1313000  37.7573000
  39.2290000  46.9073000  37.4343000  38.8430000  50.1923000  37.8433000
  38.9890000  50.4713000  38.7603000  36.0470000  49.5403000  38.2393000
  35.8280000  49.3903000  39.4313000  35.4830000  50.5243000  37.5313000
  35.6480000  50.5503000  36.5303000  34.6230000  51.5753000  38.0843000
  34.8180000  51.6863000  39.1513000  34.9650000  52.8953000  37.3823000
  34.9260000  52.7553000  36.3043000  34.2180000  53.6543000  37.6203000
  36.3490000  53.4193000  37.7703000  37.0270000  52.6083000  38.0343000
  36.7700000  53.9613000  36.9243000  36.2140000  54.3983000  38.9213000
  35.7020000  55.4903000  38.7593000  36.6620000  54.0583000  40.1113000
  36.4970000  54.7263000  40.8433000  37.0380000  53.1433000  40.3213000
  33.1220000  51.3043000  37.9403000  32.3250000  52.1473000  38.3413000
  32.7340000  50.1853000  37.3253000  33.4210000  49.4963000  37.0583000
  31.3300000  49.8843000  37.0923000  30.8930000  50.7013000  36.5153000
  31.2190000  48.6003000  36.2613000  31.6750000  47.7683000  36.7993000
  30.1670000  48.3673000  36.0853000  31.7190000  48.7293000  35.3033000
  30.5670000  49.7773000  38.4193000  31.0050000  49.0973000  39.3493000
  29.4140000  50.4343000  38.4833000  29.1120000  50.9813000  37.6913000
  28.4350000  50.2613000  39.5483000  28.6800000  49.3443000  40.0613000
  28.4280000  51.3883000  40.5923000  27.6910000  51.1373000  41.3553000
  29.7710000  51.5823000  41.2933000  30.5290000  51.9053000  40.5793000
  29.6720000  52.3183000  42.0893000  30.0700000  50.6293000  41.7283000
  28.0670000  52.6253000  40.0283000  28.5320000  53.3013000  40.5223000
  27.0570000  50.0963000  38.9373000  26.7280000  50.7353000  37.9353000
  26.2460000  49.2443000  39.5503000  26.6170000  48.6673000  40.3023000
  24.8650000  49.0373000  39.1433000  24.5370000  49.8733000  38.5243000
  24.7580000  47.7693000  38.2913000  25.3050000  47.8973000  37.3583000
  25.1930000  46.9213000  38.8243000  23.3100000  47.4783000  37.9753000
  22.6620000  48.1983000  37.2303000  22.7410000  46.4893000  38.6223000
  21.7480000  46.4083000  38.5743000  23.3100000  45.9083000  39.2393000
  23.9800000  48.9963000  40.3833000  24.2580000  48.2783000  41.3353000
  22.9220000  49.8063000  40.3823000  22.6890000  50.2613000  39.5113000
  21.9540000  49.8423000  41.4743000  22.4650000  49.5873000  42.4063000
  21.3570000  51.2513000  41.5563000  22.1140000  51.9543000  41.9093000
  21.0400000  51.5583000  40.5573000  20.1290000  51.2833000  42.4683000
  19.6360000  52.2433000  42.3233000  19.3880000  50.5453000  42.1693000
  20.5210000  51.0553000  43.9413000  19.6900000  50.5953000  44.4803000
  21.3700000  50.3793000  44.0193000  20.8710000  52.3493000  44.5313000
  21.8560000  52.5213000  44.6533000  19.9850000  53.3203000  44.6203000
  18.7020000  53.0853000  44.6483000  18.4110000  52.1153000  44.6703000
  18.0090000  53.8103000  44.6683000  20.3390000  54.5723000  44.5603000
  21.2580000  54.7543000  44.1953000  19.6190000  55.2593000  44.4123000
  20.8810000  48.7873000  41.2353000  20.3380000  48.7153000  40.1373000
  20.4590000  48.0983000  42.2913000  21.0060000  48.1333000  43.1483000
  19.3630000  47.1353000  42.2403000  19.0640000  47.0023000  41.1993000
  19.8610000  45.7713000  42.7373000  20.0800000  45.8413000  43.8033000
  19.0950000  45.0113000  42.6003000  21.1260000  45.3003000  42.0433000
  22.1960000  45.3853000  42.5993000  21.0620000  44.8403000  40.8143000
  21.9660000  44.5043000  40.4803000  20.2020000  44.7543000  40.3193000
  18.1090000  47.5923000  43.0023000  18.1260000  48.5053000  43.8363000
  16.9970000  46.9173000  42.7003000  17.0650000  46.1363000  42.0653000
  15.6750000  47.1943000  43.2763000  15.4230000  48.2353000  43.0783000
  14.5860000  46.3173000  42.6313000  13.6180000  46.6113000  43.0403000
  14.5340000  46.4433000  41.1063000  15.4420000  46.0423000  40.6553000
  13.6760000  45.8913000  40.7233000  14.4280000  47.4923000  40.8303000
  14.8030000  44.9563000  42.9183000  14.0070000  44.4733000  42.6763000
  15.6490000  47.0163000  44.7963000  14.9410000  47.7653000  45.4613000
  16.4480000  46.1023000  45.3613000  17.0560000  45.5533000  44.7713000
  16.5170000  45.8463000  46.8093000  15.5050000  45.9393000  47.2013000
  16.9720000  44.3993000  47.0863000  16.7260000  44.1593000  48.1223000
  16.3950000  43.7223000  46.4543000  18.4630000  44.1283000  46.8703000
  19.1230000  44.9633000  46.2053000  18.9120000  43.0713000  47.3803000
  17.3680000  46.8613000  47.6023000  17.5640000  46.6853000  48.8033000
  17.8640000  47.9263000  46.9613000  17.6940000  47.9823000  45.9653000
  18.6950000  48.9633000  47.5893000  18.5100000  49.9113000  47.0893000
  18.4110000  49.0653000  48.6383000  20.1980000  48.6883000  47.5423000
  20.9830000  49.5993000  47.8223000  20.5900000  47.4733000  47.1513000
  19.8890000  46.7833000  46.8933000  21.9890000  47.1013000  46.9813000
  22.5410000  47.5313000  47.8153000  22.1650000  45.5813000  47.0673000
  23.2280000  45.3483000  47.1423000  21.6660000  45.2113000  47.9623000
  21.6500000  44.9193000  45.9363000  20.6600000  44.8733000  46.0173000
  22.5880000  47.6803000  45.6973000  21.8870000  48.1543000  44.7943000
  23.9130000  47.7133000  45.6643000  24.4200000  47.3043000  46.4443000
  24.7060000  48.1163000  44.5123000  24.0540000  48.1623000  43.6473000
  25.3140000  49.5143000  44.7383000  25.9460000  49.4673000  45.6193000
  26.1350000  50.0563000  43.5693000  25.5220000  50.1083000  42.6723000
  26.5030000  51.0513000  43.8173000  26.9920000  49.4063000  43.3903000
  24.2830000  50.4523000  45.0133000  23.8440000  50.0743000  45.7823000
  25.7470000  47.0293000  44.2493000  26.3210000  46.4623000  45.1843000
  25.9750000  46.7353000  42.9783000  25.3820000  47.1613000  42.2723000
  27.0450000  45.8733000  42.4993000  27.2950000  45.1413000  43.2663000
  26.5710000  45.1133000  41.2603000  26.3990000  45.8283000  40.4573000
  27.3650000  44.4383000  40.9573000  25.2910000  44.3033000  41.4923000
  25.1870000  43.6923000  42.5853000  24.4320000  44.2863000  40.5723000
  28.2730000  46.7293000  42.1953000  28.1580000  47.7703000  41.5463000
  29.4450000  46.3193000  42.6833000  29.4520000  45.4913000  43.2703000
  30.6690000  47.1153000  42.6133000  30.4540000  48.0463000  42.0873000
  31.1370000  47.5043000  44.0193000  31.2360000  46.6023000  44.6263000
  32.1280000  47.9533000  43.9443000  30.2290000  48.4883000  44.7263000
  30.4210000  49.8703000  44.5453000  31.2020000  50.2123000  43.8893000
  29.6010000  50.8003000  45.2083000  29.7420000  51.8573000  45.0513000
  28.5850000  50.3373000  46.0653000  27.8010000  51.2293000  46.7153000
  28.2730000  52.0273000  46.9333000  28.3840000  48.9583000  46.2363000
  27.5720000  48.6473000  46.8663000  29.1970000  48.0273000  45.5643000
  29.0130000  46.9643000  45.6753000  31.7910000  46.4193000  41.8493000
  32.1910000  45.2853000  42.1353000  32.3690000  47.1793000  40.9233000
  31.8900000  48.0273000  40.6333000  33.6660000  46.9283000  40.3213000
  34.0250000  47.8573000  39.8883000  34.3590000  46.6263000  41.1053000
  33.6770000  45.8743000  39.2263000  32.6510000  45.4913000  38.6623000
  34.8880000  45.4083000  38.9183000  35.6730000  45.7713000  39.4363000
  35.1380000  44.5623000  37.7483000  34.7630000  45.1173000  36.8883000
  36.6560000  44.3723000  37.5493000  37.1090000  45.3643000  37.5763000
  37.3080000  43.5263000  38.6643000  36.9560000  42.4993000  38.6143000
  38.3890000  43.5213000  38.5383000  37.0780000  43.9403000  39.6453000
  36.9110000  43.7853000  36.1453000  36.7450000  42.7073000  36.1633000
  36.2140000  44.2263000  35.4363000  38.3120000  44.0703000  35.6023000
  39.0650000  43.6443000  36.2633000  38.4120000  43.6333000  34.6103000
  38.4660000  45.1473000  35.5273000  34.3710000  43.2313000  37.7783000
  33.9800000  42.7213000  36.7283000  34.1110000  42.7003000  38.9733000
  34.4200000  43.2003000  39.7923000  33.2910000  41.5063000  39.1723000
  33.0410000  41.0843000  38.2003000  34.0920000  40.4513000  39.9603000
  34.5080000  40.9173000  40.8553000  33.4270000  39.6513000  40.2843000
  35.2180000  39.7993000  39.1393000  35.9140000  40.5583000  38.7913000
  35.9820000  38.8263000  40.0383000  35.3140000  38.0353000  40.3813000
  36.8050000  38.3813000  39.4803000  36.3860000  39.3583000  40.8983000
  34.6860000  39.0253000  37.9283000  34.2910000  39.7123000  37.1813000
  35.4920000  38.4573000  37.4613000  33.8930000  38.3403000  38.2353000
  31.9130000  41.7973000  39.7713000  31.2770000  40.8453000  40.2053000
  31.4500000  43.0533000  39.8013000  32.0210000  43.7953000  39.4233000
  30.0710000  43.3903000  40.1923000  30.0350000  44.4553000  40.4153000
  29.1180000  43.1083000  39.0153000  29.2790000  42.0923000  38.6553000
  28.0820000  43.1643000  39.3473000  29.2850000  44.0923000  37.8523000
  30.3090000  44.0673000  37.4803000  28.6210000  43.7783000  37.0473000
  28.9060000  45.5133000  38.2423000  27.7660000  45.9283000  38.1813000
  29.8540000  46.3173000  38.6753000  29.5620000  47.2193000  39.0093000
  30.8160000  46.0103000  38.6733000  29.6440000  42.7033000  41.4973000
  28.6660000  41.9683000  41.5733000  30.4580000  42.8833000  42.5343000
  31.2260000  43.5363000  42.4313000  30.2150000  42.2753000  43.8383000
  29.8210000  41.2693000  43.6863000  31.5380000  42.1573000  44.6033000
  32.0600000  43.1013000  44.4743000  31.3230000  41.9083000  46.1073000
  30.7750000  40.9753000  46.2443000  32.2790000  41.8463000  46.6193000
  30.7690000  42.7323000  46.5603000  32.3830000  41.0293000  43.9693000
  31.9300000  40.0633000  44.1913000  32.3880000  41.1453000  42.8853000
  33.8460000  41.0223000  44.4203000  33.9100000  40.8013000  45.4793000
  34.3880000  40.2523000  43.8713000  34.3040000  41.9913000  44.2183000
  29.1520000  43.0803000  44.5793000  29.2710000  44.2943000  44.7313000
  28.1330000  42.3783000  45.0633000  28.0960000  41.4023000  44.8213000
  26.9160000  42.9683000  45.6063000  26.6710000  43.8513000  45.0103000
  25.7980000  41.9473000  45.3863000  25.7350000  41.6983000  44.3243000
  25.9870000  41.0413000  45.9603000  24.4800000  42.5313000  45.8213000
  24.0820000  42.3553000  46.9643000  23.8340000  43.2693000  44.9593000
  22.9760000  43.7453000  45.2173000  24.2270000  43.4383000  44.0203000
  27.0170000  43.4083000  47.0853000  27.4920000  42.6563000  47.9483000
  26.4950000  44.6003000  47.3963000  26.1500000  45.1843000  46.6363000
  26.5420000  45.2113000  48.7373000  27.5520000  45.0873000  49.1253000
  26.2820000  46.7113000  48.6443000  26.4720000  47.1713000  49.6143000
  26.9810000  47.1193000  47.9273000  24.9580000  46.9983000  48.2463000
  24.6290000  47.7153000  48.8293000  25.5950000  44.6263000  49.7843000
  25.7250000  44.9473000  50.9683000  24.6400000  43.7633000  49.4243000
  24.5090000  43.5403000  48.4413000  23.7990000  43.1083000  50.4303000
  23.5020000  43.8513000  51.1723000  22.5460000  42.5623000  49.7693000
  22.1100000  43.3223000  49.1203000  22.8160000  41.6953000  49.1633000
  21.5190000  42.1703000  50.8333000  21.9530000  41.5093000  51.5833000
  21.0990000  43.0593000  51.3063000  20.4560000  41.4133000  50.0693000
  20.0570000  42.0963000  49.3183000  20.9130000  40.5673000  49.5523000
  19.3990000  40.9153000  50.9493000  19.6620000  40.6383000  51.8763000
  18.1600000  40.7413000  50.5443000  17.7670000  41.1133000  49.3533000
  18.3840000  41.6913000  48.7643000  16.8200000  41.0173000  49.0523000
  17.2850000  40.1903000  51.3403000  17.5480000  39.9233000  52.2693000
  16.3340000  40.1133000  51.0323000  24.5490000  42.0123000  51.1753000
  24.4130000  41.9073000  52.3903000  25.3520000  41.1993000  50.4903000
  25.4210000  41.3353000  49.4913000  26.0560000  40.0733000  51.1243000
  25.5820000  39.8463000  52.0753000  25.9180000  38.8113000  50.2763000
  26.4820000  38.9593000  49.3633000  26.3470000  37.9623000  50.8093000
  24.5160000  38.4853000  49.8953000  23.9890000  38.6303000  48.6593000
  24.5330000  38.9763000  47.7873000  22.6410000  38.3383000  48.7003000
  22.0300000  38.4063000  47.8953000  22.2380000  37.9933000  49.9713000
  20.9970000  37.6443000  50.5173000  20.1230000  37.5883000  49.8883000
  20.9180000  37.3233000  51.8833000  19.9760000  37.0133000  52.3143000
  22.0760000  37.3623000  52.6823000  22.0200000  37.0803000  53.7243000
  23.3160000  37.7253000  52.1243000  24.2110000  37.7293000  52.7253000
  23.4250000  38.0553000  50.7573000  27.5310000  40.3423000  51.4083000
  28.0310000  39.8833000  52.4343000  28.2440000  41.0513000  50.5273000
  27.7790000  41.4323000  49.7093000  29.6980000  40.8663000  50.4383000
  29.9900000  40.0273000  51.0693000  30.0490000  40.4573000  49.0133000
  29.7850000  41.2753000  48.3443000  31.1230000  40.2873000  48.9443000
  29.3450000  39.2173000  48.5773000  28.4110000  39.1403000  47.6053000
  28.0690000  39.9843000  47.0153000  27.9490000  37.8403000  47.5143000
  27.2360000  37.5393000  46.8653000  28.5460000  37.0243000  48.4493000
  28.4160000  35.6643000  48.7603000  27.7110000  35.0373000  48.2353000
  29.2140000  35.1193000  49.7793000  29.1160000  34.0713000  50.0453000
  30.1350000  35.9303000  50.4633000  30.7430000  35.4913000  51.2443000
  30.2640000  37.2943000  50.1413000  30.9880000  37.9013000  50.6583000
  29.4620000  37.8763000  49.1353000  30.5590000  42.0323000  50.8993000
  31.5850000  41.7823000  51.5233000  30.1570000  43.2723000  50.6473000
  29.2800000  43.4143000  50.1623000  30.8850000  44.4653000  51.0683000
  31.6480000  44.1923000  51.7963000  31.5980000  45.0733000  49.8543000
  32.2300000  45.8943000  50.1873000  32.2460000  44.3063000  49.4323000
  30.5070000  45.6693000  48.5333000  29.9320000  45.4433000  51.7513000
  28.7180000  45.3703000  51.5663000  30.4760000  46.3443000  52.5653000
  31.4820000  46.3383000  52.6923000  29.6900000  47.3923000  53.1973000
  28.6350000  47.1053000  53.2133000  30.1410000  47.5603000  54.6503000
  29.9350000  46.6533000  55.2133000  31.2100000  47.7723000  54.6833000
  29.3670000  48.6973000  55.2823000  28.1530000  48.7583000  55.2213000
  30.0310000  49.6823000  55.8363000  29.4720000  50.4143000  56.2353000
  31.0320000  49.6813000  55.8673000  29.8020000  48.7103000  52.4213000
  30.9030000  49.2383000  52.2533000  28.6660000  49.2763000  52.0253000
  27.7970000  48.7653000  52.1263000  28.5800000  50.6423000  51.4903000
  29.5810000  51.0673000  51.4273000  28.0150000  50.6243000  50.0653000
  28.0980000  51.6293000  49.6493000  28.6300000  49.9753000  49.4483000
  26.5520000  50.1773000  49.9503000  25.8560000  49.9693000  50.9783000
  26.0890000  50.0713000  48.8013000  27.7820000  51.5943000  52.3973000
  27.5980000  52.7613000  52.0543000  27.3140000  51.1093000  53.5513000
  27.5090000  50.1393000  53.7733000  26.6200000  51.9053000  54.5643000
  26.5390000  51.3133000  55.4753000  27.2180000  52.7903000  54.7833000
  25.2140000  52.3803000  54.1923000  24.6060000  53.1003000  54.9793000
  24.6680000  51.9843000  53.0363000  25.2340000  51.4073000  52.4143000
  23.3300000  52.4113000  52.5783000  22.7870000  52.8313000  53.4283000
  23.4890000  53.5173000  51.5383000  22.5070000  53.8933000  51.2623000
  24.0550000  54.3403000  51.9813000  24.2420000  52.9823000  50.3143000
  25.2510000  52.6943000  50.6103000  23.7490000  52.1043000  49.8943000
  24.3710000  54.0713000  49.2663000  24.1640000  55.0533000  49.6993000
  25.4060000  54.0733000  48.9203000  23.5050000  53.8153000  48.1153000
  23.9600000  53.3673000  47.3353000  22.2670000  54.2113000  47.9593000
  21.3740000  54.3223000  48.9033000  21.5840000  53.8503000  49.7733000
  20.4420000  54.6433000  48.7343000  21.9650000  54.5843000  46.7673000
  22.7300000  54.6843000  46.1273000  21.0540000  54.9553000  46.5813000
  22.4620000  51.2613000  52.0813000  21.4310000  51.5063000  51.4543000
  22.8970000  50.0353000  52.3623000  23.7940000  49.9533000  52.8153000
  22.2260000  48.7993000  51.9723000  21.4880000  49.0353000  51.2063000
  23.1910000  47.8263000  51.2923000  23.9760000  47.5163000  51.9843000
  22.4380000  46.5983000  50.7743000  21.5810000  46.9053000  50.1753000
  23.1040000  46.0083000  50.1493000  22.1010000  45.9813000  51.6073000
  23.7760000  48.4713000  50.1833000  24.4890000  49.0733000  50.4963000
  21.5450000  48.1533000  53.1823000  22.2220000  47.6513000  54.0893000
  20.2010000  48.1343000  53.2153000  19.2940000  48.8033000  52.2963000
  19.1370000  48.1783000  51.4143000  19.6540000  49.7893000  52.0063000
  17.9930000  48.9523000  53.0693000  17.1300000  49.0033000  52.4043000
  18.0430000  49.8363000  53.7073000  17.9730000  47.6923000  53.9333000
  17.5650000  46.8673000  53.3443000  17.3840000  47.8363000  54.8393000
  19.4510000  47.4373000  54.2513000  19.6970000  47.8793000  55.2163000
  19.7830000  45.9403000  54.2573000  19.8580000  45.3023000  53.2103000
  19.9800000  45.3533000  55.4403000  19.9020000  45.9173000  56.2733000
  20.2420000  43.9123000  55.5803000  20.0950000  43.6363000  56.6243000
  19.5200000  43.3623000  54.9753000  21.6480000  43.4503000  55.1713000
  21.8610000  42.2413000  55.0253000  22.5860000  44.3923000  55.0163000
  22.3000000  45.3593000  55.0993000  23.9910000  44.1453000  54.6833000
  24.0320000  43.8003000  53.6573000  24.7620000  45.4703000  54.7353000
  24.3740000  46.1523000  53.9773000  24.6240000  45.9223000  55.7193000
  26.1430000  45.2673000  54.5223000  26.3120000  45.3593000  53.5723000
  24.6290000  43.0913000  55.6073000  24.3940000  43.0873000  56.8173000
  25.4180000  42.1673000  55.0413000  25.4320000  42.1543000  54.0253000
  26.1730000  41.1333000  55.7873000  25.8820000  41.1563000  56.8373000
  25.8870000  39.7373000  55.2063000  26.0150000  39.7703000  54.1293000
  26.6200000  39.0383000  55.6013000  24.5060000  39.1663000  55.5273000
  23.7410000  39.9013000  55.2853000  24.3470000  38.2713000  54.9273000
  24.4680000  38.7683000  57.0063000  25.2910000  38.0763000  57.2003000
  24.6300000  39.6543000  57.6223000  23.2140000  38.1253000  57.4223000
  23.3190000  37.2243000  57.8563000  22.1250000  38.8053000  57.7123000
  21.7350000  39.8583000  57.0463000  22.2870000  40.2013000  56.2713000
  20.9410000  40.3953000  57.3333000  21.4210000  38.4483000  58.7473000
  21.7410000  37.6993000  59.3333000  20.6210000  38.9873000  59.0213000
  27.6840000  41.3383000  55.8263000  28.3130000  40.8183000  56.7373000
  28.2520000  42.0553000  54.8523000  27.6390000  42.4673000  54.1683000
  29.6930000  42.2993000  54.7183000  29.8670000  42.5873000  53.6813000
  30.0990000  43.4963000  55.5993000  29.3960000  44.3143000  55.4423000
  30.0600000  43.2003000  56.6473000  31.4950000  44.0063000  55.2763000
  32.0920000  43.6883000  54.2603000  32.0650000  44.8333000  56.1243000
  32.9840000  45.1643000  55.9033000  31.6150000  45.0403000  56.9993000
  30.5560000  41.0383000  54.9503000  31.4870000  41.0453000  55.7563000
  30.2510000  39.9453000  54.2453000  29.4370000  39.9683000  53.6423000
  30.9460000  38.6663000  54.4053000  31.0240000  38.4563000  55.4733000
  30.1150000  37.5533000  53.7423000  29.8180000  37.8883000  52.7513000
  30.7260000  36.6563000  53.6243000  28.8580000  37.1903000  54.5513000
  28.3880000  38.1073000  54.8883000  27.8450000  36.4383000  53.6883000
  28.2870000  35.5053000  53.3303000  26.9520000  36.2093000  54.2683000
  27.5680000  37.0473000  52.8283000  29.1900000  36.3393000  55.7783000
  29.8410000  36.8873000  56.4583000  28.2750000  36.0803000  56.3073000
  29.6900000  35.4203000  55.4653000  32.3930000  38.6923000  53.8873000
  33.2150000  37.8973000  54.3363000  32.7620000  39.6103000  52.9853000
  32.0750000  40.2613000  52.6183000  34.1700000  39.7903000  52.6083000
  34.6610000  38.8203000  52.6743000  34.3200000  40.2433000  51.1543000
  33.7310000  41.1373000  50.9803000  35.3610000  40.5083000  50.9753000
  33.8660000  39.0033000  49.9313000  34.9440000  40.7183000  53.5503000
  36.1680000  40.7983000  53.4013000  34.2610000  41.3583000  54.5083000
  33.2640000  41.1863000  54.5833000  34.8210000  42.2893000  55.4853000
  33.9660000  42.7403000  55.9933000  35.6130000  41.5153000  56.5483000
  35.0400000  40.6473000  56.8713000  36.5660000  41.1853000  56.1383000
  35.8390000  42.3883000  57.7663000  34.9050000  42.8963000  58.3583000
  37.0680000  42.6143000  58.1663000  37.1660000  43.2243000  58.9583000
  37.8410000  42.3213000  57.6013000  35.5930000  43.4523000  54.8403000
  36.7470000  43.7203000  55.1703000  34.9580000  44.1213000  53.8803000
  33.9850000  43.8873000  53.6933000  35.5590000  45.1943000  53.0843000
  36.3880000  45.6093000  53.6553000  36.1030000  44.7033000  51.7233000
  36.2290000  45.5773000  51.0803000  37.4970000  44.0743000  51.8703000
  37.4230000  43.1403000  52.4313000  37.9340000  43.8803000  50.8933000
  38.1550000  44.7553000  52.4093000  35.0910000  43.7593000  51.0433000
  34.9890000  42.8543000  51.6343000  34.1170000  44.2423000  50.9903000
  35.4780000  43.3613000  49.6263000  36.3710000  42.7383000  49.6383000
  34.6570000  42.8073000  49.1703000  35.6700000  44.2663000  49.0523000
  34.5420000  46.3033000  52.8253000  33.3590000  46.0283000  52.6113000
  34.9930000  47.5643000  52.7733000  36.3340000  48.0333000  53.0933000
  37.0910000  47.4763000  52.5373000  36.5060000  47.9353000  54.1663000
  36.3850000  49.5063000  52.6963000  36.8950000  49.6033000  51.7393000
  36.8870000  50.1093000  53.4533000  34.9220000  49.9213000  52.5263000
  34.7990000  50.6663000  51.7403000  34.5510000  50.3153000  53.4733000
  34.1820000  48.6223000  52.2073000  33.2070000  48.6363000  52.6883000
  34.0140000  48.3733000  50.7063000  34.9730000  48.0083000  50.0223000
  32.8140000  48.5983000  50.1703000  32.0390000  48.8393000  50.7783000
  32.5740000  48.4333000  48.7343000  32.8470000  47.4173000  48.4463000
  31.1000000  48.6473000  48.3973000  30.8150000  49.6643000  48.6653000
  30.9930000  48.5563000  47.3193000  29.9290000  47.5083000  49.1693000
  33.4230000  49.3843000  47.8853000  33.7770000  49.0383000  46.7643000
  33.8110000  50.5493000  48.4173000  33.5720000  50.7533000  49.3753000
  34.7020000  51.4863000  47.7193000  34.2280000  51.7813000  46.7823000
  34.9210000  52.7463000  48.5633000  35.5850000  53.4233000  48.0233000
  33.9640000  53.2483000  48.7183000  35.4930000  52.4283000  49.8213000
  35.8300000  53.2423000  50.2123000  36.0550000  50.8603000  47.3663000
  36.6080000  51.1813000  46.3163000  36.5710000  49.9253000  48.1763000
  36.0650000  49.6613000  49.0093000  37.8200000  49.2193000  47.8753000
  38.5960000  49.9583000  47.6763000  38.2360000  48.4033000  49.1043000
  37.4840000  47.6473000  49.3273000  39.1870000  47.9063000  48.9043000
  38.3630000  49.0623000  49.9633000  37.7180000  48.3283000  46.6223000
  38.7340000  48.0133000  46.0063000  36.5000000  47.9563000  46.2143000
  35.6940000  48.2803000  46.7373000  36.2390000  47.1693000  45.0103000
  37.0500000  46.4523000  44.8823000  34.9300000  46.3753000  45.2023000
  34.1010000  47.0753000  45.2963000  34.7460000  45.7943000  44.2963000
  34.9300000  45.4173000  46.4123000  35.1310000  45.9633000  47.3353000
  33.5680000  44.7473000  46.5363000  33.4050000  44.1433000  45.6533000
  33.5290000  44.1193000  47.4243000  32.7860000  45.5053000  46.5943000
  35.9710000  44.3143000  46.2243000  36.9710000  44.7233000  46.3583000
  35.8200000  43.4983000  46.9263000  35.8660000  43.9283000  45.2143000
  36.2360000  48.0163000  43.7213000  36.1800000  47.4523000  42.6323000
  36.3430000  49.3483000  43.8313000  36.3710000  49.7453000  44.7623000
  36.4400000  50.2813000  42.6973000  36.1150000  49.7583000  41.8023000
  35.4890000  51.4723000  42.9173000  35.8190000  52.0123000  43.8063000
  35.5780000  52.1503000  42.0683000  34.0000000  51.1143000  43.0783000
  33.8650000  50.4333000  43.9183000  33.2270000  52.4033000  43.3583000
  33.3520000  53.1013000  42.5293000  32.1680000  52.1883000  43.4743000
  33.5970000  52.8633000  44.2733000  33.4250000  50.4803000  41.8093000
  33.9620000  49.5653000  41.5713000  32.3790000  50.2253000  41.9563000
  33.4970000  51.1743000  40.9743000  37.8810000  50.7423000  42.3893000
  38.0860000  51.6533000  41.5783000  38.8760000  50.1173000  43.0273000
  38.6320000  49.3823000  43.6743000  40.2950000  50.3753000  42.7773000
  40.4680000  51.4473000  42.8813000  41.1570000  49.6603000  43.8193000
  40.8250000  49.9403000  44.8203000  41.0570000  48.5803000  43.7013000
  42.5100000  50.0483000  43.6503000  43.0350000  49.5833000  44.3163000
  40.7290000  49.9483000  41.3713000  40.1960000  49.0043000  40.7873000
  41.7450000  50.6183000  40.8153000  42.1810000  51.3393000  41.3713000
  42.4100000  50.1463000  39.5853000  41.6540000  49.9533000  38.8253000
  43.3750000  51.2053000  39.0493000  43.9180000  51.6753000  39.8713000
  44.0940000  50.7323000  38.3783000  42.6470000  52.1693000  38.3083000
  42.7690000  53.0133000  38.7623000  43.1720000  48.8293000  39.7843000
  43.4190000  48.1063000  38.8193000  43.5550000  48.5523000  41.0293000
  43.2420000  49.1803000  41.7603000  44.1680000  47.3163000  41.5113000
  44.8480000  46.9073000  40.7633000  44.9790000  47.6883000  42.7643000
  45.7450000  48.4093000  42.4713000  44.3220000  48.1823000  43.4783000
  45.6620000  46.5323000  43.5023000  45.3890000  45.3423000  43.2013000
  46.4710000  46.8583000  44.3893000  43.0690000  46.2913000  41.8233000
  42.2260000  46.5323000  42.6883000  43.0540000  45.1483000  41.1263000
  43.7620000  45.0043000  40.4273000  42.0140000  44.1213000  41.3033000
  41.0660000  44.6493000  41.4113000  41.8780000  43.2093000  40.0633000
  41.0210000  42.5573000  40.2443000  41.5250000  44.0383000  38.8183000
  42.3760000  44.6493000  38.5223000  41.2590000  43.3813000  37.9903000
  40.6790000  44.6913000  39.0313000  43.1150000  42.2953000  39.8623000
  43.9450000  42.8833000  39.4703000  43.4260000  41.8863000  40.8233000
  42.8650000  41.0943000  38.9403000  42.7360000  41.4373000  37.9143000
  43.7210000  40.4203000  38.9823000  41.9690000  40.5573000  39.2453000
  42.1470000  43.2733000  42.5813000  41.2910000  42.4143000  42.8013000
  43.1740000  43.4703000  43.4193000  43.8430000  44.2093000  43.2013000
  43.4660000  42.6013000  44.5793000  43.7720000  41.6253000  44.2033000
  44.6230000  43.1533000  45.4313000  44.3820000  44.1553000  45.7863000
  44.9310000  42.2533000  46.6323000  45.0910000  41.2273000  46.3013000
  45.8360000  42.6123000  47.1243000  44.1200000  42.2833000  47.3603000
  45.7940000  43.2083000  44.6543000  45.7560000  44.0653000  44.1603000
  42.2570000  42.3803000  45.4873000  41.8980000  41.2333000  45.7693000
  41.5960000  43.4643000  45.9153000  41.9490000  44.3733000  45.6473000
  40.4490000  43.4013000  46.8263000  40.7560000  42.8963000  47.7423000
  40.0160000  44.8333000  47.1753000  39.7190000  45.3753000  46.2753000
  39.1720000  44.8053000  47.8673000  40.8410000  45.3643000  47.6533000
  39.2770000  42.6103000  46.2183000  38.6860000  41.7443000  46.8713000
  38.9870000  42.8803000  44.9423000  39.5500000  43.5713000  44.4683000
  37.9420000  42.1963000  44.1793000  36.9980000  42.2683000  44.7133000
  37.7630000  42.8303000  42.7933000  38.7170000  42.8613000  42.2643000
  37.0690000  42.2153000  42.2163000  37.2200000  44.1333000  42.8853000
  37.9290000  44.7843000  42.9173000  38.2360000  40.7103000  44.0423000
  37.3510000  39.8933000  44.2883000  39.4790000  40.3423000  43.7233000
  40.1680000  41.0663000  43.5323000  39.8990000  38.9383000  43.6443000
  39.2190000  38.4123000  42.9733000  41.3240000  38.8073000  43.0733000
  42.0030000  39.4603000  43.6223000  41.8230000  37.3613000  43.2193000
  41.0000000  36.6673000  43.0543000  42.5680000  37.1423000  42.4623000
  42.2470000  37.2083000  44.2123000  41.3560000  39.2073000  41.5953000
  41.0340000  40.2403000  41.4843000  42.3740000  39.1233000  41.2153000
  40.6920000  38.5743000  41.0113000  39.7940000  38.2483000  45.0033000
  39.2670000  37.1423000  45.0923000  40.2610000  38.8793000  46.0823000
  40.6880000  39.7953000  45.9663000  40.1630000  38.3053000  47.4243000
  40.6100000  37.3123000  47.4203000  40.9060000  39.1933000  48.4333000
  40.6280000  40.2383000  48.2863000  40.6170000  38.9033000  49.4423000
  42.4170000  39.0823000  48.3683000  43.1260000  39.8283000  49.0073000
  42.9790000  38.1533000  47.6263000  43.9820000  38.2293000  47.5843000
  42.4200000  37.6993000  46.9373000  38.7190000  38.0753000  47.8513000
  38.4260000  37.0173000  48.4093000  37.8260000  39.0183000  47.5593000
  38.1310000  39.8843000  47.1183000  36.4150000  38.8113000  47.8253000
  36.3230000  38.4473000  48.8473000  35.6890000  40.1503000  47.7513000
  36.1720000  40.8413000  48.4403000  35.7820000  40.5593000  46.7453000
  33.9350000  40.0433000  48.1823000  35.8110000  37.7253000  46.9203000
  35.1430000  36.8313000  47.4293000  36.1390000  37.6913000  45.6233000
  36.7050000  38.4413000  45.2393000  35.6480000  36.6673000  44.6943000
  34.5570000  36.7123000  44.6663000  36.1780000  36.9733000  43.2903000
  37.2670000  36.9183000  43.2713000  35.7760000  36.2493000  42.5813000
  35.8620000  37.9693000  42.9863000  36.0410000  35.2443000  45.1093000
  35.2340000  34.3223000  44.9983000  37.2570000  35.0573000  45.6423000
  37.8990000  35.8433000  45.6403000  37.6870000  33.7643000  46.1993000
  37.5980000  33.0023000  45.4253000  39.1460000  33.8383000  46.6513000
  39.2950000  34.7353000  47.2543000  39.3690000  32.9693000  47.2713000
  40.1100000  33.8423000  45.4593000  40.0140000  32.9083000  44.9053000
  39.8850000  34.6693000  44.7883000  41.5410000  33.9843000  45.9813000
  41.6360000  34.9343000  46.5093000  41.7520000  33.1643000  46.6693000
  42.5390000  33.9413000  44.8253000  42.4170000  33.0023000  44.2693000
  42.3140000  34.7573000  44.1293000  43.9300000  34.0643000  45.3153000
  44.2380000  33.2343000  45.8013000  44.5340000  34.1953000  44.4993000
  44.0520000  34.8823000  45.8883000  36.8040000  33.3053000  47.3623000
  36.5830000  32.1023000  47.5013000  36.3140000  34.2333000  48.1963000
  36.5100000  35.2053000  47.9973000  35.3800000  33.9273000  49.2923000
  35.7270000  33.0413000  49.8263000  35.2890000  35.0863000  50.2963000
  34.9170000  35.9783000  49.7953000  34.5710000  34.8173000  51.0743000
  36.6410000  35.3853000  50.9563000  36.9690000  34.5173000  51.5293000
  37.3860000  35.6003000  50.1943000  36.5200000  36.5943000  51.8873000
  36.0600000  37.4193000  51.3403000  35.8760000  36.3283000  52.7293000
  37.8960000  37.0433000  52.3893000  38.3980000  36.1743000  52.8243000
  38.4880000  37.3963000  51.5383000  37.7550000  38.1103000  53.4153000
  37.1340000  37.7963000  54.1523000  38.6430000  38.3513000  53.8343000
  37.3440000  38.9643000  53.0383000  33.9980000  33.5733000  48.7563000
  33.4610000  32.5553000  49.1643000  33.5010000  34.3223000  47.7693000
  34.0090000  35.1593000  47.5113000  32.1880000  34.0863000  47.1483000
  31.4210000  34.1113000  47.9273000  31.8830000  35.2093000  46.1253000
  32.6960000  35.2493000  45.4003000  30.5770000  34.9243000  45.3613000
  29.7370000  34.8913000  46.0563000  30.3990000  35.6933000  44.6113000
  30.6370000  33.9753000  44.8313000  31.7930000  36.5763000  46.8383000
  30.9380000  36.5453000  47.4983000  32.6660000  36.7383000  47.4613000
  31.6630000  37.7923000  45.9133000  30.7040000  37.7823000  45.3963000
  31.7180000  38.7003000  46.5113000  32.4740000  37.7943000  45.1863000
  32.1260000  32.6903000  46.5113000  31.2340000  31.8983000  46.7933000
  33.1120000  32.3493000  45.6813000  33.8160000  33.0473000  45.4643000
  33.1110000  31.0733000  44.9413000  32.1420000  30.9723000  44.4503000
  34.1910000  31.1373000  43.8503000  34.0860000  32.0953000  43.3413000
  35.6050000  31.0603000  44.4223000  35.8020000  30.0673000  44.8193000
  36.3190000  31.2893000  43.6353000  35.7100000  31.7953000  45.2083000
  34.0420000  30.0493000  42.7853000  33.0760000  30.1553000  42.3003000
  34.8170000  30.1663000  42.0273000  34.1250000  29.0583000  43.2293000
  33.2770000  29.8523000  45.8563000  32.8660000  28.7433000  45.5123000
  33.8760000  30.0593000  47.0323000  34.0700000  31.0153000  47.2963000
  34.0410000  29.0213000  48.0483000  34.2480000  28.0743000  47.5533000
  35.2380000  29.3483000  48.9453000  35.0610000  30.2913000  49.4653000
  35.3520000  28.5573000  49.6893000  36.4280000  29.4393000  48.1723000
  36.4530000  30.3513000  47.8203000  32.7760000  28.8033000  48.8883000
  32.7640000  27.8643000  49.6773000  31.7300000  29.6193000  48.7103000
  31.8190000  30.4053000  48.0773000  30.5140000  29.6133000  49.5393000
  30.8180000  29.4333000  50.5733000  29.8590000  31.0023000  49.4783000
  30.6310000  31.7583000  49.3263000  29.1660000  31.0523000  48.6363000
  29.1540000  31.3533000  50.7893000  29.8720000  31.4293000  51.8123000
  27.9380000  31.6423000  50.7363000  29.4840000  28.5223000  49.1803000
  28.5930000  28.2293000  49.9693000  29.6020000  27.8753000  48.0143000
  30.3880000  28.1313000  47.4363000  28.8520000  26.6413000  47.7243000
  29.5460000  25.8013000  47.7623000  28.1000000  26.4673000  48.4943000
  28.1230000  26.5833000  46.3853000  27.8240000  25.4833000  45.9303000
  27.8810000  27.7163000  45.7133000  28.1120000  28.5963000  46.1563000
  27.3000000  27.7043000  44.3603000  26.9800000  26.6803000  44.1693000
  26.0310000  28.5743000  44.2903000  25.6170000  28.6833000  45.2933000
  26.2790000  29.5653000  43.9133000  24.9460000  27.9483000  43.4213000
  25.0880000  26.9163000  42.7863000  23.7950000  28.5693000  43.3533000
  23.0580000  28.0673000  42.8903000  23.6200000  29.3413000  43.9733000
  28.3220000  27.9633000  43.2423000  27.9500000  28.1923000  42.0843000
  29.6160000  27.9073000  43.5783000  29.8510000  27.7343000  44.5433000
  30.7030000  28.1443000  42.6363000  31.6570000  28.1513000  43.1643000
  30.7130000  27.3383000  41.9083000  30.5210000  29.4873000  41.9333000
  30.1010000  30.4693000  42.5463000  30.7690000  29.5393000  40.6253000
  31.1170000  28.7083000  40.1603000  30.5910000  30.7813000  39.8613000
  30.9290000  31.6023000  40.4923000  31.4740000  30.7963000  38.6123000
  31.3250000  29.8853000  38.0313000  31.1970000  31.6483000  37.9923000
  32.9490000  30.9403000  38.9863000  33.0730000  31.7593000  39.6963000
  33.2860000  30.0213000  39.4613000  34.0030000  31.2703000  37.5553000
  33.5950000  33.0133000  37.2543000  33.7940000  33.5963000  38.1553000
  34.2140000  33.3903000  36.4423000  32.5470000  33.1143000  36.9763000
  29.1360000  31.1193000  39.5243000  28.8890000  32.1613000  38.9183000
  28.1470000  30.3263000  39.9603000  28.3690000  29.5313000  40.5493000
  26.7430000  30.7023000  39.7583000  26.6460000  30.9603000  38.7073000
  25.7840000  29.5353000  40.0473000  25.9190000  29.1853000  41.0673000
  24.7560000  29.8763000  39.9563000  25.9730000  28.4013000  39.0623000
  25.6400000  28.4933000  37.8873000  26.5230000  27.3033000  39.5173000
  26.7030000  26.5383000  38.9063000  26.8130000  27.2833000  40.4933000
  26.3510000  31.9783000  40.5153000  25.3190000  32.5623000  40.1883000
  27.1840000  32.4453000  41.4493000  28.0050000  31.9013000  41.6743000
  27.0630000  33.7593000  42.0743000  26.1130000  33.8103000  42.6053000
  28.1930000  33.8943000  43.0993000  29.1620000  33.8743000  42.5963000
  28.0900000  34.8423000  43.6283000  28.1480000  33.0793000  43.8233000
  27.0930000  34.9293000  41.0683000  26.4610000  35.9473000  41.3303000
  27.7360000  34.7693000  39.9073000  28.2220000  33.9033000  39.7223000
  27.7530000  35.7823000  38.8463000  27.5100000  36.7653000  39.2573000
  29.1530000  35.8833000  38.2533000  29.5220000  34.8913000  37.9963000
  29.1300000  36.4843000  37.3453000  30.0830000  36.5173000  39.2183000
  30.1430000  37.8383000  39.4753000  29.5550000  38.6043000  38.9743000
  31.0380000  38.0673000  40.4953000  31.2290000  39.0193000  40.8093000
  31.5780000  36.8913000  40.9733000  32.5000000  36.5793000  41.9853000
  32.9420000  37.3703000  42.5723000  32.8060000  35.2273000  42.2343000
  33.4960000  34.9603000  43.0213000  32.1980000  34.2083000  41.4753000
  32.4360000  33.1753000  41.6813000  31.2840000  34.5353000  40.4583000
  30.8230000  33.7653000  39.8643000  30.9610000  35.8783000  40.1823000
  26.7240000  35.4583000  37.7843000  26.8800000  34.4813000  37.0473000
  25.6450000  36.2373000  37.7003000  25.6160000  37.0973000  38.2393000
  24.5730000  35.9133000  36.7513000  24.3250000  34.8653000  36.9063000
  23.2740000  36.7043000  37.0083000  22.9180000  36.4293000  38.0013000
  23.4300000  38.2243000  36.9853000  23.7820000  38.5673000  36.0123000
  22.4760000  38.7033000  37.2083000  24.1490000  38.5423000  37.7433000
  22.1830000  36.3243000  35.9943000  22.1220000  35.2433000  35.8823000
  21.2210000  36.7173000  36.3263000  22.4190000  36.7633000  35.0263000
  25.0650000  35.9953000  35.3103000  24.6970000  35.1273000  34.5133000
  25.9390000  36.9493000  34.9723000  26.3160000  37.5823000  35.6843000
  26.4530000  37.0563000  33.6143000  25.6010000  37.0383000  32.9353000
  27.1590000  38.4003000  33.4443000  28.1230000  38.3773000  33.9503000
  27.3220000  38.5903000  32.3913000  26.5580000  39.2093000  33.8663000
  27.3510000  35.8663000  33.2503000  27.3200000  35.4313000  32.0983000
  28.0640000  35.2783000  34.2203000  28.0320000  35.6743000  35.1523000
  28.7880000  34.0263000  34.0003000  29.4110000  34.1483000  33.1153000
  29.7150000  33.6993000  35.1743000  30.4410000  34.5003000  35.2973000
  29.1320000  33.6223000  36.0893000  30.4270000  32.4023000  34.9653000
  31.5850000  32.2323000  34.2853000  32.1760000  33.0373000  33.8623000
  31.8580000  30.8803000  34.1603000  32.6880000  30.4923000  33.7173000
  30.9080000  30.1213000  34.8023000  30.7830000  28.7453000  35.0143000
  31.5270000  28.0723000  34.6153000  29.7130000  28.2713000  35.7913000
  29.6200000  27.2143000  35.9923000  28.7800000  29.1753000  36.3313000
  27.9740000  28.8093000  36.9483000  28.9090000  30.5563000  36.1023000
  28.2130000  31.2503000  36.5493000  29.9830000  31.0643000  35.3383000
  27.8360000  32.8573000  33.7163000  28.0180000  32.1503000  32.7203000
  26.7800000  32.6923000  34.5303000  26.6890000  33.3303000  35.3193000
  25.7510000  31.6593000  34.2963000  26.2140000  30.6753000  34.3643000
  24.5560000  31.7503000  35.2643000  23.9940000  32.6603000  35.0543000
  23.8960000  30.9083000  35.0413000  24.8500000  31.7343000  36.7593000
  25.4800000  30.8713000  36.9573000  25.3740000  32.6323000  37.0593000
  23.5530000  31.6063000  37.5763000  23.0290000  30.7083000  37.2453000
  23.8150000  31.4443000  38.6193000  22.6300000  32.7613000  37.4643000
  22.0970000  32.8113000  36.6113000  22.2680000  33.5873000  38.4403000
  22.9420000  33.7543000  39.5403000  23.8390000  33.2923000  39.6603000
  22.6660000  34.4243000  40.2303000  21.1630000  34.2723000  38.3393000
  20.5980000  34.1953000  37.5113000  20.8790000  34.8873000  39.0813000
  25.1560000  31.7803000  32.8983000  25.0300000  30.7733000  32.2153000
  24.7510000  32.9933000  32.5163000  24.8310000  33.7533000  33.1813000
  23.9960000  33.2053000  31.2843000  23.2520000  32.4103000  31.1843000
  23.2580000  34.5593000  31.3363000  23.9690000  35.3503000  31.5723000
  22.8270000  34.7603000  30.3543000  22.1150000  34.5983000  32.3403000
  21.6870000  33.6003000  32.8943000  21.5810000  35.7663000  32.6263000
  20.8150000  35.7513000  33.2753000  21.9170000  36.6063000  32.1973000
  24.8860000  33.1093000  30.0453000  24.4160000  32.6583000  29.0063000
  26.1370000  33.5853000  30.1223000  26.4650000  33.9573000  31.0083000
  26.9570000  33.8223000  28.9233000  26.4320000  33.4253000  28.0503000
  27.1360000  35.3313000  28.7103000  27.4260000  35.8293000  29.6343000
  27.9200000  35.4973000  27.9703000  25.8220000  35.8983000  28.1603000
  25.5560000  35.3513000  27.2543000  25.0150000  35.7753000  28.8843000
  25.9580000  37.3703000  27.7943000  26.8820000  37.5233000  27.2333000
  25.1140000  37.6293000  27.1523000  25.9510000  38.1993000  29.0103000
  26.3580000  37.7833000  29.8343000  25.3440000  39.3583000  29.1513000
  24.8860000  40.0283000  28.1323000  25.0040000  39.6473000  27.2113000
  24.3930000  40.8913000  28.2733000  25.1700000  39.8613000  30.3373000
  25.5960000  39.4223000  31.1393000  24.8130000  40.7943000  30.4543000
  28.2790000  33.0773000  28.8563000  28.8070000  32.9443000  27.7603000
  28.8120000  32.5873000  29.9693000  28.3220000  32.7123000  30.8423000
  30.1230000  31.9333000  29.9803000  30.6410000  32.1043000  29.0343000
  30.9540000  32.5773000  31.0833000  30.4440000  32.4203000  32.0313000
  31.9310000  32.0953000  31.1283000  31.1830000  34.3473000  30.8323000
  30.0470000  30.4203000  30.1773000  30.7540000  29.6633000  29.5033000
  29.2070000  29.9763000  31.1153000  28.6360000  30.6573000  31.6063000
  29.0670000  28.5663000  31.4743000  30.0130000  28.2193000  31.8883000
  27.9690000  28.4593000  32.5373000  28.2220000  29.1023000  33.3833000
  27.0330000  28.8203000  32.1063000  27.7730000  27.0223000  33.0333000
  27.6570000  26.3343000  32.1953000  28.6440000  26.7253000  33.6183000
  26.5070000  26.9443000  33.8883000  26.5100000  27.7623000  34.6143000
  25.6320000  27.0423000  33.2423000  26.4810000  25.6083000  34.6323000
  26.5550000  24.8023000  33.8943000  27.3570000  25.5523000  35.2833000
  25.2350000  25.4613000  35.4223000  24.4270000  25.5183000  34.8133000
  25.2110000  24.5683000  35.8973000  25.1660000  26.2103000  36.1033000
  28.7280000  27.7413000  30.2283000  27.8150000  28.0873000  29.4873000
  29.4440000  26.6333000  30.0333000  30.2200000  26.4503000  30.6463000
  29.2050000  25.6973000  28.9293000  29.6820000  24.7453000  29.1623000
  28.1320000  25.5273000  28.8263000  29.7290000  26.1523000  27.5643000
  29.5300000  25.4413000  26.5853000  30.3880000  27.3093000  27.4953000
  30.4820000  27.8683000  28.3313000  31.0460000  27.7913000  26.2793000
  30.6260000  27.2653000  25.4233000  30.7770000  29.2873000  26.0343000
  31.0670000  29.5193000  25.0083000  29.3020000  29.6573000  26.2073000
  28.9910000  29.5533000  27.2463000  29.1550000  30.6943000  25.9033000
  28.6850000  29.0143000  25.5783000  31.5380000  30.1033000  26.8913000
  31.2180000  29.9513000  27.7943000  32.5410000  27.4673000  26.3003000
  33.0940000  26.9823000  27.2933000  33.2070000  27.7183000  25.1743000
  32.7060000  28.1083000  24.3933000  34.6610000  27.6483000  25.0613000
  35.0140000  26.7683000  25.6023000  35.0720000  27.4723000  23.5943000
  34.6160000  26.5613000  23.2063000  34.7000000  28.3173000  23.0103000
  36.5930000  27.3693000  23.4283000  37.3160000  27.0353000  24.3973000
  37.0970000  27.6633000  22.3193000  35.2940000  28.8873000  25.7083000
  35.7210000  29.8423000  25.0523000  35.3580000  28.8733000  27.0413000
  34.8680000  28.1283000  27.5253000  35.9170000  29.9903000  27.8133000
  35.4030000  30.8703000  27.4463000  35.6190000  29.8813000  29.3143000
  36.0960000  30.7233000  29.8063000  34.1180000  30.0153000  29.5783000
  33.5730000  29.1873000  29.1223000  33.9280000  30.0083000  30.6503000
  33.7480000  30.9513000  29.1613000  36.1770000  28.5983000  29.9403000
  37.2570000  28.5423000  29.8033000  35.9620000  28.5993000  31.0033000
  35.7040000  27.7223000  29.4933000  37.4160000  30.1963000  27.5813000
  37.9610000  31.2583000  27.8773000  38.0960000  29.2163000  26.9913000
  37.5810000  28.4003000  26.6833000  39.4940000  29.3303000  26.6083000
  40.0530000  29.6563000  27.4863000  39.9640000  27.9373000  26.2053000
  39.5170000  27.2143000  26.8923000  39.6320000  27.7043000  25.1953000
  41.4820000  27.7973000  26.2993000  41.9450000  28.1953000  25.3963000
  41.8550000  28.3503000  27.1613000  41.8700000  26.3383000  26.4753000
  42.5950000  25.9833000  27.3833000  41.3590000  25.4403000  25.6603000
  41.5980000  24.4873000  25.8753000  40.5660000  25.6713000  25.0903000
  39.7180000  30.3663000  25.4953000  40.8010000  30.9533000  25.4213000
  38.6880000  30.6733000  24.6943000  37.8170000  30.1623000  24.8073000
  38.6950000  31.7853000  23.7403000  39.3910000  31.5593000  22.9343000
  37.2820000  31.9183000  23.1593000  36.5710000  32.1783000  23.9453000
  37.2670000  32.6993000  22.3983000  36.9720000  30.9743000  22.7053000
  39.1420000  33.1103000  24.3843000  39.8940000  33.8763000  23.7813000
  38.7630000  33.3313000  25.6453000  38.1720000  32.6423000  26.0943000
  39.0780000  34.5413000  26.4043000  38.7700000  35.3943000  25.8013000
  38.2350000  34.5443000  27.6783000  38.4100000  33.6483000  28.2693000
  38.5140000  35.4023000  28.2853000  36.7970000  34.6803000  27.3223000
  35.8780000  33.6993000  27.2453000  36.0630000  32.6843000  27.5293000
  34.6950000  34.1983000  26.7423000  33.8630000  33.6363000  26.5933000
  34.8150000  35.5383000  26.4513000  33.9520000  36.4753000  25.8803000
  32.9660000  36.1763000  25.5583000  34.4200000  37.7803000  25.6643000
  33.7740000  38.4943000  25.1753000  35.7200000  38.1513000  26.0573000
  36.0580000  39.1643000  25.8963000  36.5800000  37.2013000  26.6313000
  37.5740000  37.4803000  26.9393000  36.1480000  35.8743000  26.8253000
  40.5580000  34.7553000  26.7073000  40.9710000  35.9023000  26.8873000
  41.3710000  33.6993000  26.6923000  40.9660000  32.7893000  26.5033000
  42.8110000  33.7803000  26.9843000  43.0620000  34.8103000  27.2353000
  43.1520000  32.9443000  28.2343000  44.2160000  33.0833000  28.4203000
  42.3920000  33.4833000  29.4633000  41.3180000  33.3363000  29.3503000
  42.7220000  32.9593000  30.3573000  42.5950000  34.5473000  29.5853000
  42.8990000  31.4353000  28.0153000  41.8550000  31.2003000  28.2253000
  43.0950000  31.1713000  26.9753000  43.8070000  30.5473000  28.8723000
  43.6310000  30.7423000  29.9303000  43.5890000  29.4993000  28.6653000
  44.8520000  30.7453000  28.6353000  43.7010000  33.4483000  25.7773000
  44.9160000  33.6393000  25.8333000  43.1230000  32.9973000  24.6533000
  42.1200000  32.8613000  24.6483000  43.8800000  32.7783000  23.4143000
  44.7470000  32.1643000  23.6623000  43.0500000  32.0523000  22.3513000
  42.0570000  32.5053000  22.2833000  43.5440000  32.1703000  21.3853000
  42.9240000  30.5543000  22.6373000  43.9050000  30.1173000  22.8283000
  42.3000000  30.4133000  23.5163000  42.2910000  29.8633000  21.4253000
  41.6110000  30.5563000  20.9263000  43.0740000  29.5893000  20.7143000
  41.5530000  28.6683000  21.8453000  42.0990000  27.9013000  22.1963000
  40.2420000  28.5143000  21.9123000  39.3530000  29.3293000  21.4203000
  39.6070000  30.1153000  20.8613000  38.3800000  29.0253000  21.5323000
  39.7790000  27.4673000  22.5093000  40.3590000  26.7143000  22.8053000
  38.7560000  27.3773000  22.5973000  44.4110000  34.0963000  22.8543000
  43.7220000  35.1203000  22.8573000  45.6480000  34.0503000  22.3723000
  46.1460000  33.1763000  22.4283000  46.3710000  35.2103000  21.8463000
  47.1210000  34.8663000  21.1323000  45.6810000  35.8713000  21.3223000
  47.0940000  36.0293000  22.9173000  47.7940000  36.9753000  22.5773000
  46.9440000  35.6733000  24.1973000  46.3640000  34.8793000  24.4333000
  47.6100000  36.3493000  25.3033000  47.8300000  37.3783000  25.0133000
  46.6680000  36.3883000  26.5103000  46.5710000  35.3783000  26.9063000
  47.1260000  37.0113000  27.2773000  44.9990000  37.0333000  26.2223000
  48.9280000  35.6573000  25.6723000  48.9830000  34.4313000  25.7643000
  49.9800000  36.4333000  25.9423000  49.8820000  37.4343000  25.8583000
  51.1990000  35.9023000  26.5623000  51.3000000  34.8553000  26.2753000
  52.4390000  36.6513000  26.0483000  52.1780000  37.6883000  25.8323000
  53.2140000  36.6563000  26.8163000  52.9790000  35.9703000  24.7733000
  52.1440000  35.7003000  24.1233000  53.6020000  36.6823000  24.2313000
  53.8150000  34.7133000  25.0773000  53.2620000  34.0503000  25.7423000
  53.9810000  34.1783000  24.1403000  55.1320000  35.0783000  25.6443000
  55.7020000  35.6753000  25.0703000  55.6320000  34.7723000  26.8303000
  55.0320000  33.9783000  27.6753000  54.1380000  33.5793000  27.4533000
  55.3540000  33.8753000  28.6243000  56.7710000  35.2903000  27.1963000
  57.2710000  35.9153000  26.5913000  57.1570000  35.0443000  28.0903000
  51.0150000  35.8933000  28.0773000  50.9890000  36.9423000  28.7113000
  50.7760000  34.6843000  28.5843000  50.7720000  33.9083000  27.9443000
  50.4690000  34.3613000  29.9803000  50.4590000  35.2653000  30.5863000
  49.0750000  33.6753000  30.0033000  48.9280000  33.1793000  29.0403000
  49.0990000  32.8793000  30.7393000  47.8560000  34.5573000  30.3253000
  47.7040000  34.5713000  31.4053000  47.9550000  36.0003000  29.8453000
  48.2550000  36.0103000  28.8023000  47.0030000  36.5113000  29.9693000
  48.7050000  36.5343000  30.4283000  46.6310000  33.9233000  29.6673000
  46.5080000  32.9003000  30.0153000  45.7380000  34.4903000  29.9173000
  46.7550000  33.9103000  28.5833000  51.6250000  33.5443000  30.5633000
  51.4730000  32.3103000  30.6683000  52.6550000  34.1893000  30.8443000
  16.2340000  47.2663000  12.8813000  41.8070000  63.9513000  25.7743000
  50.8260000  42.0723000  65.3133000  31.2440000  58.7913000  29.1323000
  13.3140000  23.0733000  18.3103000   9.9880000  32.7823000  40.3883000
  52.2930000  31.0213000  41.0933000   2.5130000  49.6113000  19.5853000
  42.3230000  44.8143000  51.5323000  33.5120000  15.1293000  40.7013000
   6.6500000  59.7673000  26.3633000  53.3600000  24.1023000  45.1033000
  49.7610000  61.7803000  41.5173000  65.7570000  25.3043000  47.2013000
  40.5790000  53.2833000  16.4473000  59.0460000  64.1453000  31.0763000
  59.0950000  47.6583000  25.1763000  13.5350000  57.9713000  58.6003000
  11.7420000  52.1943000  55.8633000  10.6270000  56.8633000  61.7813000
  15.7940000  29.9673000  14.4163000  64.6600000  37.3883000  63.5383000
   5.4840000  21.1093000  31.6103000  44.0310000  18.4543000  63.3153000
   8.9350000  38.6863000  27.8173000  38.8330000  17.7233000  16.5083000
  40.3310000  40.2213000  13.7043000  47.7820000   9.8743000  62.5043000
  45.6490000  26.6963000  45.6373000  15.6890000  25.8223000  17.8003000
  30.1400000  46.0163000  71.4583000  63.1110000  22.6243000  45.2443000
  11.8690000  14.2493000  44.1303000  16.7680000  23.9793000  36.3843000
  42.3360000  21.3813000  18.0953000  43.1920000  17.4683000  17.7473000
  29.9130000  36.3293000  72.0763000  29.2620000  36.9143000  71.6903000
  30.7080000  36.8593000  72.1363000  31.3910000  34.0183000  72.6133000
  30.7550000  34.0913000  73.3253000  31.0610000  34.6073000  71.9353000
  25.6180000  41.1963000  75.6443000  25.5410000  42.1473000  75.7233000
  25.0150000  40.8503000  76.3013000  33.5560000  28.8983000  72.8233000
  34.4680000  29.1303000  72.6483000  33.0470000  29.4813000  72.2613000
  27.8920000  36.5543000  74.3653000  27.7570000  37.3993000  74.7933000
  28.4330000  36.7563000  73.6013000  31.2070000  30.0683000  71.4023000
  30.6910000  30.8383000  71.6403000  30.9340000  29.3943000  72.0253000
  36.1800000  32.8213000  73.3373000  35.4030000  32.4823000  72.8923000
  36.8590000  32.8263000  72.6623000  27.5850000  31.9183000  67.8803000
  26.6780000  31.6873000  68.0803000  28.0820000  31.1213000  68.0683000
  30.4920000  40.6273000  70.8003000  29.8180000  40.9313000  71.4093000
  30.8780000  41.4303000  70.4513000  33.9960000  35.6303000  76.1723000
  33.5420000  34.7893000  76.2283000  33.3650000  36.2663000  76.5093000
  28.4610000  33.5603000  69.7423000  28.0230000  32.8433000  69.2823000
  29.2030000  33.7873000  69.1803000  28.6910000  40.7953000  73.0153000
  28.8660000  40.3243000  73.8293000  28.0040000  41.4223000  73.2433000
  32.5830000  32.4183000  69.3353000  31.9660000  31.6933000  69.2383000
  32.1140000  33.1793000  68.9923000  27.5590000  38.9893000  75.7033000
  26.7760000  39.5323000  75.7973000  28.2580000  39.5073000  76.1033000
  33.4060000  35.7423000  73.4543000  33.6820000  35.6283000  74.3633000
  32.5370000  35.3443000  73.4153000  30.3760000  38.9183000  74.3593000
  30.9050000  38.4073000  73.7463000  30.6390000  38.6023000  75.2233000
  33.4700000  38.8893000  74.9743000  33.6440000  38.3243000  74.2223000
  33.9630000  39.6893000  74.7923000  39.3240000  31.6533000  76.5933000
  39.7670000  30.9043000  76.1953000  38.4470000  31.6443000  76.2113000
  34.4580000  38.2063000  72.0743000  35.1530000  38.8273000  72.2933000
  34.8000000  37.3563000  72.3493000  36.3570000  35.6563000  73.6033000
  36.8820000  35.9953000  72.8783000  36.2690000  34.7213000  73.4193000
  28.5490000  38.3123000  70.9823000  27.9760000  38.9313000  70.5293000
  29.1220000  38.8623000  71.5163000  31.7690000  38.5963000  72.1123000
  32.7020000  38.5303000  72.3163000  31.6810000  39.4323000  71.6543000
  34.3980000  37.9123000  69.0733000  34.3190000  37.5783000  69.9663000
  35.2190000  38.4053000  69.0723000  28.9340000  29.6483000  68.3233000
  29.8800000  29.5193000  68.3923000  28.5550000  28.9103000  68.8003000
  27.1180000  27.5733000  68.2593000  26.2110000  27.2773000  68.3353000
  27.3960000  27.2763000  67.3923000  31.9680000  35.2293000  68.6943000
  32.6720000  35.4343000  69.3103000  31.2440000  35.7973000  68.9593000
  33.8770000  35.6683000  70.7443000  34.7110000  35.2363000  70.5613000
  33.7150000  35.4963000  71.6713000  33.5310000  32.1713000  72.1093000
  33.4760000  32.0053000  71.1683000  32.9060000  32.8783000  72.2663000
  37.0150000  44.9063000  70.1073000  37.2670000  44.3843000  69.3453000
  36.0770000  44.7433000  70.2103000  36.7340000  46.8093000  72.3093000
  36.6180000  46.1333000  72.9783000  36.8450000  46.3223000  71.4933000
  38.7180000  41.2993000  71.0103000  38.8860000  42.1673000  71.3773000
  38.5280000  41.4623000  70.0863000  38.6970000  43.7553000  71.9953000
  38.5770000  44.2003000  72.8343000  38.0020000  44.1033000  71.4363000
  35.3380000  42.1213000  71.2573000  34.5020000  42.4593000  71.5783000
  35.1980000  41.9863000  70.3203000  37.3130000  36.9653000  75.9653000
  36.6600000  36.6503000  75.3413000  37.2710000  36.3433000  76.6913000
  38.4240000  47.2473000  67.8803000  37.5170000  47.0163000  68.0803000
  38.9220000  46.4513000  68.0683000  30.1720000  45.0693000  76.3843000
  29.9750000  44.4763000  75.6593000  29.6170000  44.7643000  77.1023000
  39.3010000  48.8893000  69.7423000  38.8630000  48.1733000  69.2823000
  40.0420000  49.1173000  69.1803000  32.6670000  44.5953000  74.0683000
  31.7360000  44.5343000  74.2853000  32.7620000  44.0733000  73.2723000
  32.5850000  41.1213000  76.6563000  32.8460000  42.0353000  76.5473000
  33.4070000  40.6533000  76.8063000  43.4220000  47.7473000  69.3353000
  42.8050000  47.0223000  69.2383000  42.9540000  48.5083000  68.9923000
  35.2120000  41.9663000  68.4573000  34.3350000  41.8453000  68.0933000
  35.6880000  41.1753000  68.2053000  29.9400000  43.5603000  73.8983000
  30.2350000  42.6513000  73.8453000  29.0390000  43.5393000  73.5763000
  31.6680000  41.2423000  74.0223000  31.3400000  40.3613000  73.8403000
  32.0220000  41.1863000  74.9103000  34.7830000  41.5293000  74.3903000
  35.1220000  42.0573000  73.6683000  35.2300000  41.8673000  75.1663000
  36.7690000  40.0263000  72.5893000  37.4900000  40.4043000  72.0853000
  36.1460000  40.7453000  72.6933000  40.9130000  40.7313000  73.5253000
  41.1290000  41.6133000  73.2243000  40.4320000  40.3403000  72.7953000
  36.9160000  39.5613000  75.4193000  37.0370000  38.6333000  75.6183000
  36.6260000  39.5753000  74.5073000  32.9140000  42.9063000  72.0153000
  32.2210000  42.9803000  71.3593000  32.6690000  42.1423000  72.5373000
  39.7730000  44.9773000  68.3233000  40.7190000  44.8483000  68.3923000
  39.3950000  44.2393000  68.8003000  37.9570000  42.9023000  68.2593000
  37.0510000  42.6063000  68.3353000  38.2350000  42.6053000  67.3923000
  39.5740000  37.4463000  74.4133000  38.7640000  37.1013000  74.7893000
  40.2620000  37.1373000  75.0023000  36.7270000  39.7613000  68.4003000
  37.5890000  40.0873000  68.6593000  36.9120000  38.9743000  67.8873000
  37.6800000  37.0013000  71.6883000  37.6680000  37.9453000  71.8453000
  38.5730000  36.8183000  71.3943000  41.4950000  33.5953000  75.9423000
  40.7290000  33.0413000  76.0883000  41.9060000  33.6673000  76.8043000
  29.9130000  13.3353000  58.8013000  29.2620000  13.9203000  58.4143000
  30.7080000  13.8663000  58.8613000  31.3910000  11.0243000  59.3383000
  30.7550000  11.0973000  60.0503000  31.0610000  11.6133000  58.6603000
  25.6180000  18.2023000  62.3693000  25.5410000  19.1533000  62.4473000
  25.0150000  17.8573000  63.0263000  33.5560000   5.9043000  59.5483000
  34.4680000   6.1373000  59.3723000  33.0470000   6.4883000  58.9853000
  27.8920000  13.5603000  61.0893000  27.7570000  14.4053000  61.5183000
  28.4330000  13.7623000  60.3263000  31.2070000   7.0743000  58.1263000
  30.6910000   7.8453000  58.3653000  30.9340000   6.4013000  58.7493000
  36.1800000   9.8273000  60.0623000  35.4030000   9.4893000  59.6173000
  36.8590000   9.8333000  59.3873000  27.5850000   8.9243000  54.6053000
  26.6780000   8.6933000  54.8043000  28.0820000   8.1283000  54.7923000
  30.4920000  17.6343000  57.5253000  29.8180000  17.9373000  58.1333000
  30.8780000  18.4373000  57.1753000  33.9960000  12.6363000  62.8963000
  33.5420000  11.7953000  62.9533000  33.3650000  13.2723000  63.2343000
  28.4610000  10.5663000  56.4663000  28.0230000   9.8503000  56.0073000
  29.2030000  10.7943000  55.9053000  28.6910000  17.8023000  59.7393000
  28.8660000  17.3303000  60.5543000  28.0040000  18.4283000  59.9673000
  32.5830000   9.4243000  56.0593000  31.9660000   8.6993000  55.9633000
  32.1140000  10.1853000  55.7163000  27.5590000  15.9963000  62.4283000
  26.7760000  16.5383000  62.5223000  28.2580000  16.5133000  62.8273000
  33.4060000  12.7483000  60.1793000  33.6820000  12.6343000  61.0883000
  32.5370000  12.3503000  60.1403000  30.3760000  15.9243000  61.0833000
  30.9050000  15.4133000  60.4703000  30.6390000  15.6083000  61.9483000
  33.4700000  15.8963000  61.6993000  33.6440000  15.3303000  60.9463000
  33.9630000  16.6963000  61.5173000  39.3240000   8.6593000  63.3183000
  39.7670000   7.9103000  62.9203000  38.4470000   8.6503000  62.9353000
  34.4580000  15.2123000  58.7993000  35.1530000  15.8333000  59.0173000
  34.8000000  14.3623000  59.0743000  36.3570000  12.6623000  60.3273000
  36.8820000  13.0013000  59.6023000  36.2690000  11.7273000  60.1443000
  28.5490000  15.3183000  57.7063000  27.9760000  15.9373000  57.2533000
  29.1220000  15.8683000  58.2403000  31.7690000  15.6023000  58.8373000
  32.7020000  15.5373000  59.0403000  31.6810000  16.4383000  58.3783000
  34.3980000  14.9193000  55.7973000  34.3190000  14.5853000  56.6913000
  35.2190000  15.4113000  55.7973000  28.9340000   6.6543000  55.0483000
  29.8800000   6.5253000  55.1173000  28.5550000   5.9163000  55.5253000
  27.1180000   4.5793000  54.9833000  26.2110000   4.2833000  55.0593000
  27.3960000   4.2823000  54.1173000  31.9680000  12.2353000  55.4183000
  32.6720000  12.4403000  56.0343000  31.2440000  12.8033000  55.6833000
  33.8770000  12.6743000  57.4683000  34.7110000  12.2423000  57.2863000
  33.7150000  12.5023000  58.3963000  33.5310000   9.1773000  58.8343000
  33.4760000   9.0113000  57.8933000  32.9060000   9.8853000  58.9903000
  42.5050000  23.1913000  67.5643000  43.1430000  23.0713000  66.8603000
  42.3870000  24.1393000  67.6233000  39.3140000  23.1433000  67.5003000
  38.9760000  23.0283000  66.6123000  40.1830000  22.7433000  67.4803000
  35.1730000  24.9973000  63.4903000  34.6090000  24.9063000  62.7213000
  35.0580000  24.1773000  63.9703000  32.7190000  26.4923000  66.3283000
  33.5110000  26.1513000  65.9133000  32.9590000  26.6023000  67.2483000
  40.7530000  28.6643000  58.8013000  40.1010000  29.2503000  58.4143000
  41.5470000  29.1953000  58.8613000  34.6780000  25.7533000  59.2003000
  35.4510000  25.2063000  59.0613000  35.0310000  26.6173000  59.4113000
  36.5170000  27.0813000  72.4063000  36.2260000  27.9853000  72.2913000
  37.1520000  27.1223000  73.1213000  37.4420000  24.4583000  68.9973000
  38.0390000  24.2343000  68.2823000  37.5000000  23.7173000  69.5993000
  37.0150000  21.9123000  56.8323000  37.2670000  21.3903000  56.0703000
  36.0770000  21.7493000  56.9343000  42.0590000  20.9163000  64.6393000
  42.8450000  20.4983000  64.2883000  42.3230000  21.8203000  64.8073000
  42.2300000  26.3533000  59.3383000  41.5950000  26.4273000  60.0503000
  41.9000000  26.9433000  58.6603000  47.4600000  20.8533000  65.5423000
  48.1930000  20.2833000  65.7763000  46.7040000  20.4663000  65.9833000
  36.7340000  23.8153000  59.0343000  36.6180000  23.1403000  59.7023000
  36.8450000  23.3283000  58.2173000  39.0780000  23.2763000  62.7393000
  38.7130000  22.7493000  63.4503000  39.9340000  22.8863000  62.5653000
  38.7180000  18.3053000  57.7353000  38.8860000  19.1733000  58.1023000
  38.5280000  18.4683000  56.8113000  41.4760000  26.7673000  69.4013000
  41.1760000  27.6693000  69.2933000  41.1310000  26.5003000  70.2543000
  34.9270000  23.2183000  65.4353000  34.0020000  23.0863000  65.6433000
  35.1750000  23.9983000  65.9323000  44.8750000  19.2853000  67.0813000
  43.9670000  19.2173000  66.7873000  44.8240000  19.7623000  67.9093000
  38.6970000  20.7613000  58.7193000  38.5770000  21.2073000  59.5583000
  38.0020000  21.1093000  58.1613000  32.2880000  22.8613000  66.2693000
  32.4170000  23.1153000  67.1833000  31.6080000  23.4543000  65.9503000
  36.4580000  33.5313000  62.3693000  36.3800000  34.4823000  62.4473000
  35.8540000  33.1863000  63.0263000  46.7420000  17.4873000  68.8593000
  46.0990000  17.7803000  68.2133000  46.2370000  17.3723000  69.6643000
  44.3960000  21.2333000  59.5483000  45.3070000  21.4663000  59.3723000
  43.8870000  21.8173000  58.9853000  42.6800000  25.6553000  73.1843000
  43.0880000  25.2143000  72.4393000  41.9570000  25.0813000  73.4373000
  43.0030000  26.2163000  66.9393000  42.3730000  26.3803000  66.2363000
  42.6150000  26.6303000  67.7103000  46.8810000  27.1513000  64.2933000
  46.1970000  27.5313000  63.7433000  46.9660000  27.7613000  65.0273000
  44.1370000  24.7973000  70.8933000  44.3480000  25.4403000  70.2163000
  44.0900000  23.9633000  70.4253000  41.7390000  17.4093000  67.7973000
  40.8780000  17.7073000  68.0883000  41.7650000  17.6263000  66.8653000
  38.5550000  25.9533000  64.2043000  39.0190000  26.2323000  63.4143000
  38.2910000  25.0513000  64.0213000  35.4480000  25.5003000  67.1423000
  36.0180000  25.9293000  66.5043000  36.0390000  25.2183000  67.8403000
  37.4920000  22.0753000  61.0133000  38.1950000  22.5273000  61.4803000
  37.1600000  21.4343000  61.6413000  31.2350000  20.3343000  66.3153000
  30.4450000  20.5893000  65.8393000  31.7260000  21.1493000  66.4203000
  45.2510000  27.6743000  69.0653000  46.0730000  27.2723000  68.7833000
  45.2470000  27.5713000  70.0173000  33.1860000  20.6983000  63.2733000
  32.3890000  20.8103000  63.7913000  32.9590000  21.0373000  62.4073000
  39.0170000  27.2233000  71.2213000  39.0810000  27.6853000  72.0573000
  38.3080000  26.5923000  71.3493000  53.3420000  24.0183000  65.4143000
  52.5880000  23.4493000  65.2583000  53.4770000  23.9843000  66.3613000
  38.7320000  28.8893000  61.0893000  38.5960000  29.7353000  61.5183000
  39.2730000  29.0913000  60.3263000  32.1850000  26.4073000  61.6623000
  32.6970000  27.2013000  61.8123000  32.8370000  25.7103000  61.5953000
  33.9940000  29.5243000  63.7443000  34.1710000  30.4453000  63.5563000
  34.7900000  29.2093000  64.1743000  40.3580000  29.5123000  75.2193000
  39.9150000  28.7253000  74.9013000  41.0200000  29.7003000  74.5533000
  35.1170000  31.0413000  69.7453000  35.6680000  30.9133000  68.9733000
  34.2780000  31.3413000  69.3953000  42.4570000  29.7923000  73.2473000
  42.4380000  30.6133000  72.7553000  43.3790000  29.6673000  73.4723000
  30.1490000  24.7363000  62.4383000  30.9870000  25.1463000  62.2213000
  30.3270000  23.7963000  62.4083000  42.0460000  22.4033000  58.1263000
  41.5310000  23.1743000  58.3653000  41.7740000  21.7303000  58.7493000
  39.6310000  17.2483000  63.1853000  38.7750000  16.8593000  63.0053000
  40.0430000  17.3283000  62.3253000  41.1610000  14.7833000  67.5843000
  40.6570000  14.7463000  66.7713000  41.4540000  15.6923000  67.6443000
  47.0190000  25.1573000  60.0623000  46.2420000  24.8183000  59.6173000
  47.6980000  25.1623000  59.3873000  41.8350000  20.2763000  59.9523000
  41.5300000  20.5913000  60.8033000  42.7880000  20.3543000  59.9953000
  40.2790000  26.4353000  61.6013000  39.7510000  25.7003000  61.2893000
  39.7780000  27.2133000  61.3553000  45.2580000  24.6303000  66.7183000
  44.6010000  25.3203000  66.8063000  46.0630000  25.0203000  67.0623000
  35.0110000  17.0973000  63.9623000  35.5850000  16.8753000  63.2293000
  35.5980000  17.1663000  64.7153000  44.0690000  22.9843000  64.7693000
  44.5820000  23.6173000  65.2713000  44.7190000  22.3853000  64.4033000
  35.3380000  19.1273000  57.9823000  34.5020000  19.4653000  58.3033000
  35.1980000  18.9923000  57.0443000  37.3130000  13.9713000  62.6903000
  36.6600000  13.6563000  62.0653000  37.2710000  13.3493000  63.4163000
  38.4240000  24.2533000  54.6053000  37.5170000  24.0223000  54.8043000
  38.9220000  23.4573000  54.7923000  41.3310000  32.9633000  57.5253000
  40.6570000  33.2663000  58.1333000  41.7180000  33.7663000  57.1753000
  40.5470000  20.4593000  67.0143000  39.6290000  20.6813000  66.8573000
  40.9630000  20.5343000  66.1563000  41.3310000  21.8593000  62.1453000
  42.0780000  22.3713000  61.8353000  41.6000000  21.5373000  63.0053000
  39.6030000  24.3543000  59.1273000  38.6940000  24.0703000  59.2253000
  39.6330000  24.7743000  58.2683000  44.8350000  27.9653000  62.8963000
  44.3810000  27.1243000  62.9533000  44.2050000  28.6013000  63.2343000
  43.2780000  29.8033000  63.8313000  43.5710000  30.3633000  63.1133000
  43.7880000  30.0963000  64.5873000  43.8800000  11.6723000  64.7213000
  44.1860000  10.8123000  64.4333000  44.6050000  12.2643000  64.5213000
  30.1720000  22.0753000  63.1093000  29.9750000  21.4823000  62.3843000
  29.6170000  21.7703000  63.8263000  38.1520000  21.9673000  65.2283000
  38.2070000  21.0153000  65.1533000  37.3410000  22.1233000  65.7123000
  39.3010000  25.8953000  56.4663000  38.8630000  25.1793000  56.0073000
  40.0420000  26.1233000  55.9053000  36.0910000  20.5853000  62.9873000
  35.2780000  20.8843000  63.3943000  36.5870000  20.1913000  63.7053000
  38.2420000  30.5813000  64.9213000  38.1990000  30.8073000  63.9923000
  39.1580000  30.3473000  65.0693000  47.4180000  24.1713000  62.5243000
  47.2800000  24.3613000  61.5963000  47.0620000  24.9333000  62.9813000
  47.4450000  26.2393000  67.5353000  47.8790000  26.1463000  68.3833000
  48.1580000  26.2143000  66.8973000  36.3580000  27.4573000  64.7173000
  37.1520000  26.9623000  64.5153000  35.6480000  26.9293000  64.3543000
  41.1780000  29.8393000  69.0683000  41.2320000  30.4083000  69.8363000
  40.3090000  30.0093000  68.7043000  32.6670000  21.6013000  60.7933000
  31.7360000  21.5403000  61.0103000  32.7620000  21.0793000  59.9973000
  32.5850000  18.1273000  63.3813000  32.8460000  19.0413000  63.2723000
  33.4070000  17.6593000  63.5303000  48.3070000  26.2813000  70.0683000
  48.5000000  27.1863000  70.3143000  48.2070000  25.8223000  70.9023000
  40.1370000  24.0053000  70.6273000  41.0660000  24.1563000  70.4543000
  39.7160000  24.0933000  69.7723000  38.9360000  28.0303000  68.3973000
  38.7970000  27.6623000  69.2693000  38.1470000  28.5453000  68.2253000
  39.5300000  33.1313000  59.7393000  39.7060000  32.6603000  60.5543000
  38.8440000  33.7573000  59.9673000  40.4860000  27.4083000  65.7863000
  40.1510000  27.3683000  66.6813000  39.9860000  26.7433000  65.3133000
  43.4220000  24.7543000  56.0593000  42.8050000  24.0283000  55.9633000
  42.9540000  25.5153000  55.7163000  45.0770000  29.4643000  73.7203000
  45.0190000  28.7793000  73.0533000  45.4790000  30.2053000  73.2683000
  34.0960000  36.2803000  66.5133000  34.3360000  36.9123000  67.1913000
  33.2530000  35.9293000  66.8003000  35.2120000  18.9723000  55.1823000
  34.3350000  18.8513000  54.8183000  35.6880000  18.1813000  54.9293000
  45.0790000  27.4283000  71.9513000  44.1920000  27.0903000  72.0743000
  45.6490000  26.6963000  72.1883000  26.7320000  23.7603000  65.2763000
  27.4190000  23.4463000  64.6883000  26.5770000  24.6643000  65.0023000
  38.6090000  32.0883000  68.9173000  38.5360000  32.8933000  69.4293000
  38.1670000  32.2873000  68.0923000  38.3980000  31.3253000  62.4283000
  37.6150000  31.8673000  62.5223000  39.0980000  31.8423000  62.8273000
  41.7080000  17.1343000  65.0713000  42.2050000  16.3813000  64.7513000
  40.9370000  17.1713000  64.5053000  49.5610000  22.8383000  66.7133000
  49.5500000  23.7213000  66.3423000  48.6930000  22.4863000  66.5183000
  41.0690000  31.9863000  71.0733000  41.7820000  32.6213000  71.0013000
  40.5780000  32.0833000  70.2573000  42.7910000  25.8913000  62.6453000
  41.8570000  26.0123000  62.4753000  42.9690000  24.9893000  62.3813000
  38.2910000  19.2763000  64.7983000  37.9210000  18.7233000  65.4863000
  38.7870000  18.6723000  64.2463000  46.1780000  21.7333000  63.1803000
  46.6440000  22.5663000  63.1063000  46.6290000  21.2683000  63.8853000
  36.1200000  29.7363000  71.8943000  36.8210000  30.3693000  72.0473000
  35.6500000  30.0773000  71.1333000  44.2460000  28.0783000  60.1793000
  44.5220000  27.9633000  61.0883000  43.3760000  27.6793000  60.1403000
  44.1500000  14.1013000  67.2193000  43.2360000  14.3323000  67.3873000
  44.5790000  14.1853000  68.0713000  43.9200000  22.2903000  69.7193000
  43.2680000  22.5383000  69.0643000  44.2980000  21.4773000  69.3853000
  40.8810000  32.3263000  63.8223000  41.0630000  31.5083000  64.2853000
  41.7040000  32.5433000  63.3843000  41.2150000  31.2533000  61.0833000
  41.7440000  30.7423000  60.4703000  41.4780000  30.9373000  61.9483000
  31.7170000  29.2693000  68.8273000  32.3020000  28.5243000  68.9603000
  31.5200000  29.5803000  69.7113000  34.5710000  32.3053000  63.8433000
  33.9020000  32.7893000  63.3603000  34.4320000  32.5513000  64.7583000
  38.7110000  34.3393000  70.4413000  39.2630000  34.5023000  71.2063000
  39.0520000  34.9293000  69.7693000  43.5630000  29.1653000  76.2963000
  44.1070000  29.7783000  75.8023000  42.9810000  29.7233000  76.8133000
  29.9400000  20.5663000  60.6233000  30.2350000  19.6573000  60.5693000
  29.0390000  20.5453000  60.3013000  41.8480000  32.2873000  67.4283000
  41.7230000  31.4863000  66.9193000  42.5060000  32.7823000  66.9393000
  33.4690000  18.6423000  66.6063000  32.7480000  19.2563000  66.4663000
  34.2580000  19.1783000  66.5273000  43.9120000  30.0883000  69.0563000
  42.9650000  29.9693000  68.9843000  44.2600000  29.2003000  69.1383000
  31.6690000  18.2483000  60.7473000  31.3400000  17.3683000  60.5643000
  32.0220000  18.1933000  61.6343000  40.9160000  29.8833000  65.2563000
  40.7690000  28.9553000  65.4373000  41.7420000  29.9053000  64.7723000
  34.7830000  18.5353000  61.1143000  35.1220000  19.0643000  60.3923000
  35.2300000  18.8733000  61.8903000  44.5200000  30.7063000  66.3433000
  45.4450000  30.5003000  66.2053000  44.3510000  30.4583000  67.2523000
  36.7690000  17.0333000  59.3143000  37.4900000  17.4113000  58.8103000
  36.1460000  17.7513000  59.4173000  40.9130000  17.7373000  60.2493000
  41.1290000  18.6203000  59.9483000  40.4320000  17.3463000  59.5203000
  35.6530000  20.6963000  66.8273000  35.5070000  21.0103000  67.7193000
  35.1750000  21.3143000  66.2743000  37.5120000  17.6863000  66.8753000
  37.4980000  16.7903000  66.5383000  38.2290000  17.6933000  67.5083000
  44.3090000  31.2253000  61.6993000  44.4830000  30.6593000  60.9463000
  44.8020000  32.0253000  61.5173000  36.9160000  16.5673000  62.1433000
  37.0370000  15.6393000  62.3423000  36.6260000  16.5813000  61.2313000
  39.7850000  14.2533000  65.2803000  39.8070000  14.3173000  64.3253000
  40.2020000  13.4133000  65.4743000  50.1630000  23.9883000  63.3183000
  50.6060000  23.2393000  62.9203000  49.2860000  23.9793000  62.9353000
  45.2970000  30.5413000  58.7993000  45.9920000  31.1623000  59.0173000
  45.6390000  29.6913000  59.0743000  47.1960000  27.9913000  60.3273000
  47.7210000  28.3303000  59.6023000  47.1080000  27.0563000  60.1443000
  38.8580000  31.9053000  72.4563000  39.1670000  31.6603000  73.3293000
  39.6560000  32.1093000  71.9683000  38.8800000  34.0593000  64.6873000
  38.4410000  33.5663000  65.3803000  39.6310000  33.5163000  64.4463000
  31.3590000  30.2503000  64.6893000  32.1850000  29.9503000  64.3093000
  31.0090000  29.4803000  65.1383000  36.3280000  29.6023000  66.7593000
  35.7060000  28.9393000  66.4593000  36.9980000  29.6283000  66.0763000
  29.5600000  28.1683000  65.6483000  28.7230000  27.7413000  65.4673000
  29.5330000  28.3623000  66.5853000  35.8890000  28.1533000  60.2353000
  36.0380000  28.8363000  59.5823000  36.6960000  28.1333000  60.7503000
  48.5070000  27.8943000  73.1903000  48.2160000  28.2573000  74.0263000
  47.8940000  27.1803000  73.0113000  49.7070000  25.4593000  65.7103000
  50.5410000  25.8983000  65.8743000  49.8430000  24.9833000  64.8913000
  46.7560000  23.0173000  71.6583000  47.2310000  23.2103000  70.8503000
  45.8320000  23.0733000  71.4123000  33.6440000  24.1793000  61.2413000
  33.3990000  23.2763000  61.4393000  33.8140000  24.1813000  60.2993000
  32.9140000  19.9123000  58.7403000  32.2210000  19.9873000  58.0843000
  32.6690000  19.1483000  59.2623000  39.3880000  30.6483000  57.7063000
  38.8160000  31.2673000  57.2533000  39.9620000  31.1983000  58.2403000
  45.4560000  19.8933000  69.8913000  46.4080000  19.9933000  69.9123000
  45.2860000  19.1013000  70.4013000  42.6080000  30.9313000  58.8373000
  43.5410000  30.8663000  59.0403000  42.5200000  31.7673000  58.3783000
  45.2370000  30.2483000  55.7973000  45.1580000  29.9143000  56.6913000
  46.0580000  30.7403000  55.7973000  47.9350000  23.1143000  69.0053000
  47.9020000  22.1763000  69.1913000  48.5450000  23.1923000  68.2723000
  39.7730000  21.9843000  55.0483000  40.7190000  21.8543000  55.1173000
  39.3950000  21.2453000  55.5253000  45.7450000  13.6493000  65.0103000
  45.5480000  13.3413000  65.8953000  46.3550000  14.3753000  65.1403000
  37.9570000  19.9093000  54.9833000  37.0510000  19.6123000  55.0593000
  38.2350000  19.6123000  54.1173000  28.8750000  21.2293000  65.4333000
  28.5550000  20.3763000  65.1413000  28.3290000  21.4443000  66.1893000
  39.5740000  14.4523000  61.1383000  38.7640000  14.1073000  61.5133000
  40.2620000  14.1433000  61.7263000  41.5030000  13.5303000  62.7603000
  42.0560000  13.9503000  63.4193000  41.7400000  12.6043000  62.8023000
  36.7270000  16.7673000  55.1243000  37.5890000  17.0933000  55.3843000
  36.9120000  15.9813000  54.6123000  28.7440000  24.8503000  67.4023000
  28.0500000  24.4353000  66.8893000  29.4910000  24.8923000  66.8063000
  44.8810000  15.6403000  62.2683000  44.3000000  16.2993000  61.8863000
  44.6140000  14.8183000  61.8573000  43.3310000  15.0413000  64.4703000
  43.8310000  15.1523000  63.6613000  43.9740000  14.7373000  65.1103000
  30.6580000  24.7813000  65.2793000  30.6350000  24.8803000  64.3273000
  30.9680000  25.6283000  65.6013000  33.3160000  26.8393000  69.3943000
  34.2710000  26.8073000  69.3273000  33.1180000  26.3783000  70.2093000
  43.6630000  17.8003000  61.3243000  42.7760000  18.0853000  61.1063000
  44.0780000  17.6403000  60.4763000  47.0140000  17.8253000  65.0393000
  47.7900000  18.3153000  65.3113000  46.2890000  18.2513000  65.4963000
  49.4520000  18.5383000  66.0963000  50.0460000  18.2973000  65.3863000
  49.5240000  17.8183000  66.7243000  31.6710000  32.3813000  66.4113000
  31.5370000  31.6213000  65.8453000  31.2550000  33.1053000  65.9443000
  42.8070000  27.5653000  55.4183000  43.5110000  27.7703000  56.0343000
  42.0840000  28.1323000  55.6833000  43.6370000  23.3163000  61.5393000
  43.5810000  23.7733000  60.6993000  44.1900000  22.5553000  61.3613000
  47.4480000  19.1053000  62.3643000  47.1910000  18.7043000  63.1943000
  46.8230000  19.8193000  62.2393000  51.7590000  21.8443000  64.8713000
  51.1990000  21.9143000  65.6443000  51.1530000  21.6683000  64.1513000
  34.8280000  33.2783000  66.6233000  34.7120000  34.2223000  66.5203000
  34.0080000  32.9753000  67.0113000  44.7160000  28.0033000  57.4683000
  45.5510000  27.5713000  57.2863000  44.5540000  27.8313000  58.3963000
  44.3710000  24.5063000  58.8343000  44.3150000  24.3413000  57.8933000
  43.7450000  25.2143000  58.9903000  37.6800000  14.0073000  58.4123000
  37.6680000  14.9513000  58.5693000  38.5730000  13.8243000  58.1183000
  35.8540000  33.9313000  69.8383000  36.7570000  33.9633000  70.1553000
  35.6280000  33.0013000  69.8533000  37.6090000  32.6843000  66.4993000
  36.6590000  32.6843000  66.3863000  37.9120000  31.9373000  65.9833000
  41.4950000  10.6013000  62.6673000  40.7290000  10.0473000  62.8133000
  41.9060000  10.6733000  63.5283000  53.3440000  38.5203000  67.5643000
  53.9820000  38.4013000  66.8603000  53.2270000  39.4683000  67.6233000
  50.1530000  38.4733000  67.5003000  49.8150000  38.3573000  66.6123000
  51.0220000  38.0723000  67.4803000  46.0120000  40.3263000  63.4903000
  45.4490000  40.2353000  62.7213000  45.8970000  39.5063000  63.9703000
  43.5590000  41.8213000  66.3283000  44.3510000  41.4803000  65.9133000
  43.7980000  41.9313000  67.2483000  51.5920000  43.9933000  58.8013000
  50.9410000  44.5793000  58.4143000  52.3860000  44.5243000  58.8613000
  45.5180000  41.0823000  59.2003000  46.2910000  40.5353000  59.0613000
  45.8700000  41.9473000  59.4113000  48.2820000  39.7883000  68.9973000
  48.8780000  39.5633000  68.2823000  48.3390000  39.0463000  69.5993000
  47.8540000  37.2413000  56.8323000  48.1070000  36.7203000  56.0703000
  46.9170000  37.0783000  56.9343000  52.8990000  36.2453000  64.6393000
  53.6850000  35.8273000  64.2883000  53.1620000  37.1503000  64.8073000
  53.0700000  41.6823000  59.3383000  52.4340000  41.7563000  60.0503000
  52.7390000  42.2723000  58.6603000  58.2990000  36.1833000  65.5423000
  59.0320000  35.6123000  65.7763000  57.5430000  35.7953000  65.9833000
  47.5740000  39.1443000  59.0343000  47.4570000  38.4693000  59.7023000
  47.6840000  38.6583000  58.2173000  49.9170000  38.6053000  62.7393000
  49.5530000  38.0783000  63.4503000  50.7740000  38.2153000  62.5653000
  49.5580000  33.6343000  57.7353000  49.7250000  34.5023000  58.1023000
  49.3670000  33.7973000  56.8113000  45.7660000  38.5473000  65.4353000
  44.8410000  38.4153000  65.6433000  46.0150000  39.3273000  65.9323000
  55.7150000  34.6143000  67.0813000  54.8060000  34.5463000  66.7873000
  55.6640000  35.0913000  67.9093000  49.5360000  36.0903000  58.7193000
  49.4160000  36.5363000  59.5583000  48.8420000  36.4393000  58.1613000
  43.1270000  38.1913000  66.2693000  43.2560000  38.4443000  67.1833000
  42.4470000  38.7833000  65.9503000  47.2970000  48.8603000  62.3693000
  47.2200000  49.8113000  62.4473000  46.6930000  48.5153000  63.0263000
  57.5810000  32.8163000  68.8593000  56.9380000  33.1093000  68.2133000
  57.0760000  32.7013000  69.6643000  55.2350000  36.5623000  59.5483000
  56.1470000  36.7953000  59.3723000  54.7260000  37.1463000  58.9853000
  49.8720000  35.9223000  70.5573000  50.7180000  36.3463000  70.7003000
  49.8120000  35.2653000  71.2513000  53.8420000  41.5453000  66.9393000
  53.2130000  41.7093000  66.2363000  53.4550000  41.9593000  67.7103000
  57.7210000  42.4803000  64.2933000  57.0360000  42.8603000  63.7433000
  57.8050000  43.0903000  65.0273000  53.0220000  33.5823000  72.2153000
  52.7780000  34.3373000  71.6793000  53.2980000  33.9613000  73.0503000
  52.5790000  32.7383000  67.7973000  51.7170000  33.0363000  68.0883000
  52.6050000  32.9553000  66.8653000  49.3950000  41.2823000  64.2043000
  49.8590000  41.5613000  63.4143000  49.1300000  40.3813000  64.0213000
  46.2870000  40.8293000  67.1423000  46.8570000  41.2583000  66.5043000
  46.8780000  40.5483000  67.8403000  48.3320000  37.4053000  61.0133000
  49.0340000  37.8573000  61.4803000  48.0000000  36.7633000  61.6413000
  42.0740000  35.6633000  66.3153000  41.2840000  35.9193000  65.8393000
  42.5650000  36.4783000  66.4203000  44.0260000  36.0273000  63.2733000
  43.2290000  36.1393000  63.7913000  43.7980000  36.3663000  62.4073000
  40.3580000  35.9163000  68.7463000  40.6090000  36.8013000  69.0123000
  40.8940000  35.7363000  67.9743000  49.5710000  44.2193000  61.0893000
  49.4360000  45.0643000  61.5183000  50.1120000  44.4213000  60.3263000
  43.0240000  41.7363000  61.6623000  43.5360000  42.5303000  61.8123000
  43.6760000  41.0393000  61.5953000  44.8330000  44.8533000  63.7443000
  45.0100000  45.7753000  63.5563000  45.6290000  44.5393000  64.1743000
  48.9750000  31.7143000  75.3433000  49.7160000  32.3143000  75.2633000
  49.2060000  30.9713000  74.7843000  44.1190000  36.8993000  73.6203000
  44.0040000  35.9983000  73.9213000  43.2630000  37.1463000  73.2693000
  52.9200000  27.7423000  69.6193000  52.5770000  28.6323000  69.5433000
  53.2880000  27.5523000  68.7563000  40.9890000  40.0653000  62.4383000
  41.8260000  40.4753000  62.2213000  41.1670000  39.1253000  62.4083000
  52.8850000  37.7333000  58.1263000  52.3700000  38.5033000  58.3653000
  52.6130000  37.0593000  58.7493000  50.4700000  32.5783000  63.1853000
  49.6140000  32.1883000  63.0053000  50.8830000  32.6573000  62.3253000
  52.0000000  30.1123000  67.5843000  51.4960000  30.0753000  66.7713000
  52.2930000  31.0213000  67.6443000  48.2440000  30.1963000  66.5903000
  49.1090000  30.0003000  66.2313000  48.3120000  29.9673000  67.5173000
  57.8590000  40.4863000  60.0623000  57.0820000  40.1473000  59.6173000
  58.5380000  40.4913000  59.3873000  52.6740000  35.6053000  59.9523000
  52.3690000  35.9203000  60.8033000  53.6270000  35.6833000  59.9953000
  51.1190000  41.7643000  61.6013000  50.5910000  41.0303000  61.2893000
  50.6170000  42.5423000  61.3553000  56.0980000  39.9593000  66.7183000
  55.4400000  40.6493000  66.8063000  56.9020000  40.3493000  67.0623000
  45.8500000  32.4263000  63.9623000  46.4250000  32.2043000  63.2293000
  46.4380000  32.4953000  64.7153000  54.9080000  38.3143000  64.7693000
  55.4220000  38.9473000  65.2713000  55.5590000  37.7143000  64.4033000
  46.1770000  34.4573000  57.9823000  45.3410000  34.7943000  58.3033000
  46.0380000  34.3223000  57.0443000  48.1530000  29.3003000  62.6903000
  47.4990000  28.9853000  62.0653000  48.1110000  28.6783000  63.4163000
  49.2640000  39.5823000  54.6053000  48.3570000  39.3513000  54.8043000
  49.7610000  38.7863000  54.7923000  52.1710000  48.2923000  57.5253000
  51.4970000  48.5953000  58.1333000  52.5570000  49.0953000  57.1753000
  51.3860000  35.7893000  67.0143000  50.4690000  36.0103000  66.8573000
  51.8020000  35.8633000  66.1563000  52.1700000  37.1883000  62.1453000
  52.9170000  37.7003000  61.8353000  52.4390000  36.8663000  63.0053000
  50.4430000  39.6843000  59.1273000  49.5340000  39.3993000  59.2253000
  50.4720000  40.1033000  58.2683000  55.6750000  43.2943000  62.8963000
  55.2210000  42.4533000  62.9533000  55.0440000  43.9303000  63.2343000
  54.6180000  34.2233000  64.1273000  53.8800000  33.7113000  64.4583000
  54.8710000  33.7833000  63.3153000  54.1180000  45.1323000  63.8313000
  54.4100000  45.6923000  63.1133000  54.6280000  45.4253000  64.5873000
  54.7190000  27.0013000  64.7213000  55.0250000  26.1413000  64.4333000
  55.4440000  27.5933000  64.5213000  41.0110000  37.4043000  63.1093000
  40.8140000  36.8113000  62.3843000  40.4560000  37.0993000  63.8263000
  48.9910000  37.2963000  65.2283000  49.0460000  36.3443000  65.1533000
  48.1800000  37.4523000  65.7123000  50.1400000  41.2243000  56.4663000
  49.7020000  40.5083000  56.0073000  50.8810000  41.4523000  55.9053000
  46.9300000  35.9143000  62.9873000  46.1170000  36.2143000  63.3943000
  47.4260000  35.5203000  63.7053000  49.0810000  45.9103000  64.9213000
  49.0390000  46.1363000  63.9923000  49.9970000  45.6763000  65.0693000
  58.2580000  39.5003000  62.5243000  58.1190000  39.6903000  61.5963000
  57.9010000  40.2623000  62.9813000  46.4220000  33.4863000  68.6043000
  47.0620000  33.3453000  67.9063000  45.5900000  33.1993000  68.2273000
  47.1980000  42.7863000  64.7173000  47.9920000  42.2913000  64.5153000
  46.4870000  42.2583000  64.3543000  43.5060000  36.9313000  60.7933000
  42.5760000  36.8693000  61.0103000  43.6020000  36.4083000  59.9973000
  43.4250000  33.4563000  63.3813000  43.6850000  34.3713000  63.2723000
  44.2460000  32.9883000  63.5303000  44.8970000  34.8703000  70.5513000
  45.5690000  34.6623000  69.9023000  44.0700000  34.6723000  70.1113000
  50.8000000  31.4963000  72.5673000  50.1520000  32.1953000  72.4743000
  51.5700000  31.9303000  72.9353000  50.9760000  39.3343000  70.6273000
  51.9050000  39.4853000  70.4543000  50.5550000  39.4223000  69.7723000
  49.7750000  43.3593000  68.3973000  49.6360000  42.9913000  69.2693000
  48.9860000  43.8743000  68.2253000  50.3700000  48.4603000  59.7393000
  50.5450000  47.9893000  60.5543000  49.6830000  49.0873000  59.9673000
  45.3000000  38.1443000  71.3113000  45.1620000  37.4123000  71.9123000
  46.2100000  38.0553000  71.0293000  54.2610000  40.0833000  56.0593000
  53.6440000  39.3583000  55.9633000  53.7930000  40.8443000  55.7163000
  47.9280000  37.8563000  70.7993000  48.6380000  37.2153000  70.7583000
  47.8850000  38.1073000  71.7223000  46.6410000  34.8433000  72.6193000
  46.1050000  34.3923000  73.2713000  46.0530000  34.9773000  71.8763000
  46.0510000  34.3013000  55.1823000  45.1740000  34.1803000  54.8183000
  46.5270000  33.5103000  54.9293000  37.5710000  39.0893000  65.2763000
  38.2590000  38.7753000  64.6883000  37.4160000  39.9933000  65.0023000
  42.3750000  33.9783000  69.7043000  42.2910000  33.3713000  68.9693000
  41.5530000  34.4693000  69.7053000  49.2380000  46.6543000  62.4283000
  48.4540000  47.1963000  62.5223000  49.9370000  47.1713000  62.8273000
  52.5470000  32.4643000  65.0713000  53.0440000  31.7113000  64.7513000
  51.7760000  32.5003000  64.5053000  60.4000000  38.1683000  66.7133000
  60.3890000  39.0503000  66.3423000  59.5320000  37.8153000  66.5183000
  53.6300000  41.2213000  62.6453000  52.6960000  41.3413000  62.4753000
  53.8080000  40.3183000  62.3813000  49.1310000  34.6053000  64.7983000
  48.7610000  34.0523000  65.4863000  49.6270000  34.0013000  64.2463000
  57.0180000  37.0623000  63.1803000  57.4840000  37.8953000  63.1063000
  57.4680000  36.5973000  63.8853000  55.0850000  43.4073000  60.1793000
  55.3610000  43.2923000  61.0883000  54.2160000  43.0093000  60.1403000
  54.9890000  29.4303000  67.2193000  54.0750000  29.6613000  67.3873000
  55.4180000  29.5143000  68.0713000  54.7600000  37.6193000  69.7193000
  54.1070000  37.8673000  69.0643000  55.1380000  36.8063000  69.3853000
  51.7210000  47.6553000  63.8223000  51.9030000  46.8383000  64.2853000
  52.5440000  47.8723000  63.3843000  52.0550000  46.5823000  61.0833000
  52.5840000  46.0713000  60.4703000  52.3180000  46.2663000  61.9483000
  42.5560000  44.5993000  68.8273000  43.1420000  43.8533000  68.9603000
  42.3590000  44.9093000  69.7113000  45.4100000  47.6343000  63.8433000
  44.7410000  48.1183000  63.3603000  45.2720000  47.8813000  64.7583000
  37.1480000  37.1693000  67.5473000  37.1870000  36.6363000  68.3413000
  36.6420000  36.6433000  66.9283000  44.5270000  32.0163000  71.0443000
  44.5910000  32.8773000  70.6313000  44.4640000  31.4033000  70.3113000
  44.0030000  34.0883000  74.6913000  44.6300000  33.7063000  75.3053000
  43.1450000  33.8693000  75.0573000  40.7790000  35.8963000  60.6233000
  41.0740000  34.9873000  60.5693000  39.8780000  35.8743000  60.3013000
  44.3090000  33.9713000  66.6063000  43.5870000  34.5853000  66.4663000
  45.0980000  34.5073000  66.5273000  47.1110000  31.3073000  72.8803000
  47.6350000  31.5533000  73.6423000  46.8920000  32.1393000  72.4603000
  42.5080000  33.5773000  60.7473000  42.1790000  32.6973000  60.5643000
  42.8620000  33.5223000  61.6343000  51.7560000  45.2133000  65.2563000
  51.6080000  44.2843000  65.4373000  52.5810000  45.2353000  64.7723000
  45.6220000  33.8643000  61.1143000  45.9620000  34.3933000  60.3923000
  46.0690000  34.2023000  61.8903000  48.3160000  32.2483000  70.5653000
  47.9760000  31.4493000  70.9673000  47.6100000  32.5483000  69.9923000
  48.9680000  29.3333000  69.0173000  49.7910000  28.8593000  68.8953000
  49.2120000  30.1123000  69.5173000  47.6090000  32.3623000  59.3143000
  48.3300000  32.7403000  58.8103000  46.9850000  33.0813000  59.4173000
  51.7520000  33.0663000  60.2493000  51.9680000  33.9493000  59.9483000
  51.2710000  32.6753000  59.5203000  46.4920000  36.0253000  66.8273000
  46.3460000  36.3393000  67.7193000  46.0140000  36.6433000  66.2743000
  48.3520000  33.0153000  66.8753000  48.3380000  32.1193000  66.5383000
  49.0690000  33.0223000  67.5083000  50.2040000  33.4493000  68.9203000
  49.9460000  34.3713000  68.9183000  49.6730000  33.0523000  69.6103000
  55.1490000  46.5543000  61.6993000  55.3220000  45.9893000  60.9463000
  55.6420000  47.3543000  61.5173000  40.9660000  38.5653000  69.7653000
  40.4220000  39.3413000  69.8973000  41.8440000  38.9123000  69.6073000
  47.7550000  31.8973000  62.1433000  47.8770000  30.9683000  62.3423000
  47.4650000  31.9103000  61.2313000  50.6240000  29.5823000  65.2803000
  50.6470000  29.6463000  64.3253000  51.0410000  28.7423000  65.4743000
  61.0030000  39.3183000  63.3183000  61.4460000  38.5683000  62.9203000
  60.1250000  39.3093000  62.9353000  56.1360000  45.8713000  58.7993000
  56.8310000  46.4913000  59.0173000  56.4790000  45.0203000  59.0743000
  41.7530000  37.6923000  72.6583000  41.0110000  37.8413000  73.2453000
  41.4320000  37.9533000  71.7953000  58.0350000  43.3213000  60.3273000
  58.5610000  43.6593000  59.6023000  57.9480000  42.3853000  60.1443000
  49.7200000  49.3883000  64.6873000  49.2800000  48.8953000  65.3803000
  50.4700000  48.8453000  64.4463000  42.1990000  45.5793000  64.6893000
  43.0250000  45.2793000  64.3093000  41.8480000  44.8103000  65.1383000
  47.1670000  44.9323000  66.7593000  46.5450000  44.2693000  66.4593000
  47.8370000  44.9583000  66.0763000  40.4000000  43.4983000  65.6483000
  39.5630000  43.0703000  65.4673000  40.3720000  43.6913000  66.5853000
  46.7280000  43.4823000  60.2353000  46.8770000  44.1663000  59.5823000
  47.5350000  43.4623000  60.7503000  49.4690000  34.1633000  73.1073000
  48.6000000  34.4563000  72.8353000  49.7050000  34.7473000  73.8283000
  60.5460000  40.7883000  65.7103000  61.3810000  41.2273000  65.8743000
  60.6820000  40.3123000  64.8913000  44.4840000  39.5083000  61.2413000
  44.2380000  38.6053000  61.4393000  44.6530000  39.5103000  60.2993000
  52.1730000  30.3813000  70.6243000  52.6910000  31.1173000  70.2983000
  51.8190000  30.6873000  71.4583000  43.7530000  35.2413000  58.7403000
  43.0600000  35.3163000  58.0843000  43.5080000  34.4773000  59.2623000
  52.4240000  26.8013000  66.1443000  52.7050000  26.1333000  66.7703000
  53.2090000  26.9943000  65.6313000  50.2280000  45.9773000  57.7063000
  49.6550000  46.5963000  57.2533000  50.8010000  46.5273000  58.2403000
  56.2950000  35.2233000  69.8913000  57.2470000  35.3223000  69.9123000
  56.1260000  34.4303000  70.4013000  54.3170000  32.3083000  70.0773000
  53.7220000  32.5893000  69.3813000  54.0320000  32.7983000  70.8483000
  53.4480000  46.2603000  58.8373000  54.3810000  46.1953000  59.0403000
  53.3600000  47.0963000  58.3783000  56.0760000  45.5773000  55.7973000
  55.9980000  45.2433000  56.6913000  56.8970000  46.0693000  55.7973000
  50.6120000  37.3133000  55.0483000  51.5580000  37.1833000  55.1173000
  50.2340000  36.5743000  55.5253000  56.5850000  28.9783000  65.0103000
  56.3870000  28.6703000  65.8953000  57.1950000  29.7053000  65.1403000
  48.7970000  35.2383000  54.9833000  47.8900000  34.9413000  55.0593000
  49.0740000  34.9413000  54.1173000  39.7150000  36.5583000  65.4333000
  39.3950000  35.7053000  65.1413000  39.1680000  36.7733000  66.1893000
  43.4930000  39.2753000  69.1503000  43.7110000  40.2063000  69.1693000
  43.9050000  38.9163000  69.9363000  50.4130000  29.7823000  61.1383000
  49.6030000  29.4363000  61.5133000  51.1010000  29.4723000  61.7263000
  52.3420000  28.8593000  62.7603000  52.8950000  29.2793000  63.4193000
  52.5790000  27.9333000  62.8023000  47.5670000  32.0973000  55.1243000
  48.4290000  32.4223000  55.3843000  47.7520000  31.3103000  54.6123000
  39.5830000  40.1793000  67.4023000  38.8900000  39.7643000  66.8893000
  40.3310000  40.2213000  66.8063000  55.7200000  30.9693000  62.2683000
  55.1400000  31.6283000  61.8863000  55.4530000  30.1473000  61.8573000
  54.1700000  30.3703000  64.4703000  54.6700000  30.4823000  63.6613000
  54.8140000  30.0663000  65.1103000  41.4970000  40.1113000  65.2793000
  41.4740000  40.2093000  64.3273000  41.8070000  40.9573000  65.6013000
  44.1560000  42.1683000  69.3943000  45.1100000  42.1373000  69.3273000
  43.9570000  41.7073000  70.2093000  44.7460000  40.7383000  71.9613000
  45.5650000  41.2333000  71.9843000  45.0190000  39.8223000  71.9333000
  54.5020000  33.1293000  61.3243000  53.6150000  33.4143000  61.1063000
  54.9180000  32.9693000  60.4763000  57.8540000  33.1543000  65.0393000
  58.6300000  33.6443000  65.3113000  57.1290000  33.5803000  65.4963000
  60.2910000  33.8673000  66.0963000  60.8860000  33.6263000  65.3863000
  60.3640000  33.1483000  66.7243000  42.5110000  47.7103000  66.4113000
  42.3760000  46.9503000  65.8453000  42.0940000  48.4343000  65.9443000
  53.6470000  42.8943000  55.4183000  54.3500000  43.0993000  56.0343000
  52.9230000  43.4623000  55.6833000  54.4760000  38.6453000  61.5393000
  54.4200000  39.1023000  60.6993000  55.0290000  37.8843000  61.3613000
  58.2870000  34.4343000  62.3643000  58.0310000  34.0333000  63.1943000
  57.6620000  35.1483000  62.2393000  62.5980000  37.1733000  64.8713000
  62.0380000  37.2433000  65.6443000  61.9930000  36.9983000  64.1513000
  45.6680000  48.6073000  66.6233000  45.5510000  49.5523000  66.5203000
  44.8470000  48.3043000  67.0113000  55.5550000  43.3323000  57.4683000
  56.3900000  42.9003000  57.2863000  55.3940000  43.1603000  58.3963000
  55.2100000  39.8353000  58.8343000  55.1550000  39.6703000  57.8933000
  54.5850000  40.5433000  58.9903000  39.9990000  35.0723000  72.6603000
  40.6450000  34.5623000  73.1493000  39.7910000  35.8093000  73.2343000
  48.5200000  29.3363000  58.4123000  48.5070000  30.2803000  58.5693000
  49.4120000  29.1533000  58.1183000  48.4490000  48.0133000  66.4993000
  47.4980000  48.0133000  66.3863000  48.7520000  47.2663000  65.9833000
  52.3350000  25.9303000  62.6673000  51.5680000  25.3763000  62.8133000
  52.7460000  26.0033000  63.5283000  44.3390000  32.2193000  76.7573000
  45.2020000  31.8633000  76.9683000  43.7660000  31.8803000  77.4453000
  58.6940000  52.5713000  56.8323000  58.9460000  52.0493000  56.0703000
  57.7560000  52.4073000  56.9343000  58.4130000  54.4733000  59.0343000
  58.2970000  53.7983000  59.7023000  58.5230000  53.9873000  58.2173000
  60.3970000  48.9633000  57.7353000  60.5640000  49.8323000  58.1023000
  60.2070000  49.1263000  56.8113000  60.3760000  51.4193000  58.7193000
  60.2560000  51.8653000  59.5583000  59.6810000  51.7683000  58.1613000
  57.0170000  49.7863000  57.9823000  56.1800000  50.1233000  58.3033000
  56.8770000  49.6513000  57.0443000  58.9920000  44.6303000  62.6903000
  58.3390000  44.3143000  62.0653000  58.9500000  44.0073000  63.4163000
  60.1030000  54.9113000  54.6053000  59.1960000  54.6803000  54.8043000
  60.6000000  54.1153000  54.7923000  51.8510000  52.7333000  63.1093000
  51.6530000  52.1403000  62.3843000  51.2950000  52.4293000  63.8263000
  60.9800000  56.5543000  56.4663000  60.5420000  55.8373000  56.0073000
  61.7210000  56.7813000  55.9053000  54.3450000  52.2603000  60.7933000
  53.4150000  52.1983000  61.0103000  54.4410000  51.7373000  59.9973000
  54.2640000  48.7853000  63.3813000  54.5250000  49.7003000  63.2723000
  55.0860000  48.3183000  63.5303000  65.1010000  55.4123000  56.0593000
  64.4840000  54.6873000  55.9633000  64.6320000  56.1733000  55.7163000
  56.8910000  49.6313000  55.1823000  56.0140000  49.5093000  54.8183000
  57.3660000  48.8393000  54.9293000  51.6180000  51.2253000  60.6233000
  51.9140000  50.3163000  60.5693000  50.7170000  51.2043000  60.3013000
  53.3470000  48.9063000  60.7473000  53.0190000  48.0263000  60.5643000
  53.7010000  48.8513000  61.6343000  56.4610000  49.1933000  61.1143000
  56.8010000  49.7223000  60.3923000  56.9090000  49.5323000  61.8903000
  58.4480000  47.6913000  59.3143000  59.1690000  48.0693000  58.8103000
  57.8250000  48.4103000  59.4173000  62.5910000  48.3953000  60.2493000
  62.8080000  49.2783000  59.9483000  62.1110000  48.0043000  59.5203000
  58.5950000  47.2263000  62.1433000  58.7160000  46.2973000  62.3423000
  58.3050000  47.2403000  61.2313000  54.5920000  50.5713000  58.7403000
  53.8990000  50.6453000  58.0843000  54.3480000  49.8073000  59.2623000
  61.4520000  52.6423000  55.0483000  62.3980000  52.5133000  55.1173000
  61.0730000  51.9043000  55.5253000  59.6360000  50.5673000  54.9833000
  58.7290000  50.2703000  55.0593000  59.9140000  50.2703000  54.1173000
  61.2520000  45.1113000  61.1383000  60.4420000  44.7653000  61.5133000
  61.9410000  44.8013000  61.7263000  58.4060000  47.4263000  55.1243000
  59.2680000  47.7513000  55.3843000  58.5910000  46.6393000  54.6123000
  59.3590000  44.6653000  58.4123000  59.3470000  45.6103000  58.5693000
  60.2510000  44.4823000  58.1183000  63.1740000  41.2603000  62.6673000
  62.4070000  40.7053000  62.8133000  63.5850000  41.3323000  63.5283000
  36.4580000  10.5373000  49.0933000  36.3800000  11.4883000  49.1723000
  35.8540000  10.1923000  49.7513000  33.9940000   6.5303000  50.4693000
  34.1710000   7.4523000  50.2813000  34.7900000   6.2163000  50.8983000
  35.1170000   8.0483000  56.4703000  35.6680000   7.9193000  55.6973000
  34.2780000   8.3473000  56.1193000  41.3310000   9.9693000  44.2493000
  40.6570000  10.2723000  44.8583000  41.7180000  10.7723000  43.9003000
  38.2420000   7.5873000  51.6453000  38.1990000   7.8133000  50.7163000
  39.1580000   7.3533000  51.7943000  39.5300000  10.1373000  46.4643000
  39.7060000   9.6663000  47.2783000  38.8440000  10.7643000  46.6923000
  34.0960000  13.2863000  53.2383000  34.3360000  13.9183000  53.9163000
  33.2530000  12.9353000  53.5243000  38.6090000   9.0943000  55.6423000
  38.5360000   9.8993000  56.1543000  38.1670000   9.2933000  54.8173000
  38.3980000   8.3313000  49.1523000  37.6150000   8.8733000  49.2463000
  39.0980000   8.8483000  49.5523000  41.0690000   8.9933000  57.7983000
  41.7820000   9.6273000  57.7253000  40.5780000   9.0893000  56.9823000
  36.1200000   6.7423000  58.6183000  36.8210000   7.3763000  58.7713000
  35.6500000   7.0833000  57.8583000  40.8810000   9.3323000  50.5463000
  41.0630000   8.5153000  51.0093000  41.7040000   9.5493000  50.1093000
  41.2150000   8.2593000  47.8083000  41.7440000   7.7493000  47.1953000
  41.4780000   7.9443000  48.6733000  31.7170000   6.2763000  55.5513000
  32.3020000   5.5303000  55.6843000  31.5200000   6.5863000  56.4353000
  34.5710000   9.3113000  50.5683000  33.9020000   9.7953000  50.0843000
  34.4320000   9.5583000  51.4823000  38.7110000  11.3453000  57.1663000
  39.2630000  11.5083000  57.9313000  39.0520000  11.9363000  56.4943000
  41.8480000   9.2933000  54.1523000  41.7230000   8.4923000  53.6433000
  42.5060000   9.7883000  53.6643000  38.8580000   8.9113000  59.1813000
  39.1670000   8.6663000  60.0533000  39.6560000   9.1163000  58.6933000
  38.8800000  11.0653000  51.4113000  38.4410000  10.5723000  52.1053000
  39.6310000  10.5223000  51.1713000  31.3590000   7.2563000  51.4143000
  32.1850000   6.9563000  51.0343000  31.0090000   6.4873000  51.8633000
  36.3280000   6.6093000  53.4843000  35.7060000   5.9463000  53.1843000
  36.9980000   6.6353000  52.8013000  29.5600000   5.1753000  52.3733000
  28.7230000   4.7473000  52.1913000  29.5330000   5.3683000  53.3103000
  39.3880000   7.6543000  44.4313000  38.8160000   8.2733000  43.9783000
  39.9620000   8.2043000  44.9653000  31.6710000   9.3873000  53.1353000
  31.5370000   8.6273000  52.5693000  31.2550000  10.1113000  52.6683000
  34.8280000  10.2843000  53.3473000  34.7120000  11.2293000  53.2453000
  34.0080000   9.9813000  53.7363000  35.8540000  10.9373000  56.5633000
  36.7570000  10.9693000  56.8793000  35.6280000  10.0073000  56.5773000
  37.6090000   9.6903000  53.2243000  36.6590000   9.6903000  53.1103000
  37.9120000   8.9433000  52.7073000  53.3440000  15.5263000  54.2883000
  53.9820000  15.4073000  53.5853000  53.2270000  16.4743000  54.3473000
  50.1530000  15.4793000  54.2243000  49.8150000  15.3633000  53.3363000
  51.0220000  15.0783000  54.2053000  46.0120000  17.3323000  50.2143000
  45.4490000  17.2413000  49.4463000  45.8970000  16.5123000  50.6943000
  50.6350000  16.6323000  60.1833000  50.6240000  16.2383000  59.3113000
  50.7970000  15.8993000  60.7763000  43.5590000  18.8283000  53.0533000
  44.3510000  18.4873000  52.6373000  43.7980000  18.9373000  53.9733000
  51.5920000  21.0003000  45.5263000  50.9410000  21.5853000  45.1393000
  52.3860000  21.5303000  45.5853000  45.5180000  18.0883000  45.9243000
  46.2910000  17.5413000  45.7863000  45.8700000  18.9533000  46.1363000
  47.3560000  19.4163000  59.1313000  47.0650000  20.3213000  59.0163000
  47.9920000  19.4583000  59.8453000  48.2820000  16.7943000  55.7213000
  48.8780000  16.5693000  55.0073000  48.3390000  16.0523000  56.3243000
  47.8540000  14.2483000  43.5563000  48.1070000  13.7263000  42.7943000
  46.9170000  14.0843000  43.6593000  52.8990000  13.2513000  51.3643000
  53.6850000  12.8333000  51.0133000  53.1620000  14.1563000  51.5323000
  53.0700000  18.6893000  46.0623000  52.4340000  18.7623000  46.7753000
  52.7390000  19.2783000  45.3843000  47.5740000  16.1503000  45.7593000
  47.4570000  15.4753000  46.4273000  47.6840000  15.6643000  44.9423000
  49.9170000  15.6123000  49.4633000  49.5530000  15.0853000  50.1753000
  50.7740000  15.2213000  49.2903000  49.5580000  10.6403000  44.4593000
  49.7250000  11.5093000  44.8263000  49.3670000  10.8033000  43.5353000
  52.3150000  19.1023000  56.1263000  52.0150000  20.0053000  56.0183000
  51.9700000  18.8353000  56.9783000  45.7660000  15.5543000  52.1603000
  44.8410000  15.4213000  52.3673000  46.0150000  16.3333000  52.6573000
  49.5360000  13.0963000  45.4443000  49.4160000  13.5423000  46.2833000
  48.8420000  13.4453000  44.8853000  43.1270000  15.1973000  52.9943000
  43.2560000  15.4503000  53.9083000  42.4470000  15.7903000  52.6743000
  47.2970000  25.8673000  49.0933000  47.2200000  26.8173000  49.1723000
  46.6930000  25.5213000  49.7513000  49.7890000  13.0393000  61.7493000
  49.0120000  13.5993000  61.7393000  50.4280000  13.5253000  62.2713000
  55.2350000  13.5683000  46.2723000  56.1470000  13.8013000  46.0973000
  54.7260000  14.1523000  45.7103000  48.0440000  15.8483000  61.3113000
  48.7850000  16.3863000  61.0343000  47.3370000  16.4753000  61.4683000
  53.5190000  17.9913000  59.9083000  53.9270000  17.5493000  59.1643000
  52.7970000  17.4163000  60.1623000  49.8720000  12.9283000  57.2823000
  50.7180000  13.3523000  57.4253000  49.8120000  12.2713000  57.9753000
  53.8420000  18.5513000  53.6633000  53.2130000  18.7163000  52.9613000
  53.4550000  18.9653000  54.4353000  57.7210000  19.4863000  51.0183000
  57.0360000  19.8663000  50.4683000  57.8050000  20.0963000  51.7513000
  54.9760000  17.1323000  57.6173000  55.1880000  17.7763000  56.9413000
  54.9290000  16.2993000  57.1503000  49.3950000  18.2883000  50.9283000
  49.8590000  18.5673000  50.1393000  49.1300000  17.3873000  50.7463000
  46.2870000  17.8363000  53.8663000  46.8570000  18.2643000  53.2283000
  46.8780000  17.5543000  54.5653000  48.3320000  14.4113000  47.7373000
  49.0340000  14.8633000  48.2053000  48.0000000  13.7693000  48.3653000
  46.7800000  13.0023000  62.1123000  46.1500000  13.6843000  62.3463000
  46.6730000  12.8903000  61.1683000  42.0740000  12.6693000  53.0393000
  41.2840000  12.9253000  52.5633000  42.5650000  13.4843000  53.1443000
  56.0910000  20.0103000  55.7903000  56.9120000  19.6083000  55.5083000
  56.0870000  19.9063000  56.7413000  44.0260000  13.0343000  49.9973000
  43.2290000  13.1453000  50.5163000  43.7980000  13.3723000  49.1323000
  49.8560000  19.5583000  57.9463000  49.9210000  20.0203000  58.7823000
  49.1470000  18.9283000  58.0743000  40.3580000  12.9223000  55.4713000
  40.6090000  13.8073000  55.7363000  40.8940000  12.7433000  54.6983000
  64.1810000  16.3543000  52.1383000  63.4280000  15.7843000  51.9833000
  64.3160000  16.3203000  53.0853000  49.5710000  21.2253000  47.8143000
  49.4360000  22.0703000  48.2423000  50.1120000  21.4273000  47.0503000
  43.0240000  18.7423000  48.3863000  43.5360000  19.5373000  48.5373000
  43.6760000  18.0453000  48.3203000  44.8330000  21.8593000  50.4693000
  45.0100000  22.7813000  50.2813000  45.6290000  21.5453000  50.8983000
  44.1190000  13.9053000  60.3453000  44.0040000  13.0043000  60.6463000
  43.2630000  14.1523000  59.9933000  51.1980000  21.8473000  61.9443000
  50.7540000  21.0613000  61.6263000  51.8600000  22.0353000  61.2783000
  45.9570000  23.3773000  56.4703000  46.5070000  23.2483000  55.6973000
  45.1180000  23.6763000  56.1193000  53.2960000  22.1273000  59.9723000
  53.2780000  22.9483000  59.4803000  54.2180000  22.0033000  60.1973000
  49.7530000  19.6423000  60.8143000  50.2860000  18.8813000  60.5843000
  49.2250000  19.3493000  61.5573000  40.9890000  17.0713000  49.1623000
  41.8260000  17.4813000  48.9463000  41.1670000  16.1313000  49.1323000
  52.8850000  14.7393000  44.8513000  52.3700000  15.5093000  45.0903000
  52.6130000  14.0653000  45.4743000  57.8590000  17.4923000  46.7863000
  57.0820000  17.1533000  46.3423000  58.5380000  17.4973000  46.1123000
  52.6740000  12.6113000  46.6773000  52.3690000  12.9263000  47.5283000
  53.6270000  12.6903000  46.7193000  51.1190000  18.7703000  48.3263000
  50.5910000  18.0363000  48.0133000  50.6170000  19.5483000  48.0803000
  56.0980000  16.9653000  53.4433000  55.4400000  17.6553000  53.5313000
  56.9020000  17.3553000  53.7863000  45.8500000   9.4323000  50.6873000
  46.4250000   9.2103000  49.9543000  46.4380000   9.5013000  51.4403000
  54.9080000  15.3203000  51.4933000  55.4220000  15.9533000  51.9953000
  55.5590000  14.7203000  51.1273000  46.1770000  11.4633000  44.7063000
  45.3410000  11.8003000  45.0273000  46.0380000  11.3283000  43.7693000
  49.2640000  16.5893000  41.3293000  48.3570000  16.3573000  41.5293000
  49.7610000  15.7923000  41.5173000  52.1710000  25.2983000  44.2493000
  51.4970000  25.6013000  44.8583000  52.5570000  26.1013000  43.9003000
  51.3860000  12.7953000  53.7393000  50.4690000  13.0163000  53.5813000
  51.8020000  12.8693000  52.8803000  52.1700000  14.1943000  48.8693000
  52.9170000  14.7063000  48.5603000  52.4390000  13.8723000  49.7303000
  50.4430000  16.6903000  45.8523000  49.5340000  16.4063000  45.9493000
  50.4720000  17.1103000  44.9923000  55.6750000  20.3003000  49.6213000
  55.2210000  19.4603000  49.6783000  55.0440000  20.9373000  49.9583000
  54.1180000  22.1383000  50.5563000  54.4100000  22.6993000  49.8373000
  54.6280000  22.4313000  51.3113000  41.0110000  14.4103000  49.8333000
  40.8140000  13.8173000  49.1093000  40.4560000  14.1063000  50.5513000
  48.9910000  14.3033000  51.9533000  49.0460000  13.3503000  51.8773000
  48.1800000  14.4593000  52.4373000  50.1400000  18.2313000  43.1913000
  49.7020000  17.5143000  42.7313000  50.8810000  18.4583000  42.6293000
  46.9300000  12.9203000  49.7123000  46.1170000  13.2203000  50.1183000
  47.4260000  12.5263000  50.4293000  49.0810000  22.9163000  51.6453000
  49.0390000  23.1423000  50.7163000  49.9970000  22.6823000  51.7943000
  52.5280000  13.3853000  58.5433000  52.8830000  13.6123000  59.4033000
  53.1750000  13.7163000  57.9213000  58.2580000  16.5063000  49.2483000
  58.1190000  16.6973000  48.3203000  57.9010000  17.2683000  49.7053000
  46.4220000  10.4923000  55.3283000  47.0620000  10.3513000  54.6303000
  45.5900000  10.2063000  54.9523000  58.2840000  18.5743000  54.2593000
  58.7180000  18.4823000  55.1083000  58.9980000  18.5503000  53.6213000
  47.1980000  19.7923000  51.4423000  47.9920000  19.2973000  51.2403000
  46.4870000  19.2643000  51.0783000  52.0170000  22.1743000  55.7933000
  52.0710000  22.7433000  56.5613000  51.1490000  22.3443000  55.4283000
  43.5060000  13.9373000  47.5183000  42.5760000  13.8753000  47.7353000
  43.6020000  13.4143000  46.7213000  43.4250000  10.4623000  50.1053000
  43.6850000  11.3773000  49.9963000  44.2460000   9.9953000  50.2553000
  44.8970000  11.8763000  57.2753000  45.5690000  11.6683000  56.6263000
  44.0700000  11.6783000  56.8363000  59.1460000  18.6163000  56.7933000
  59.3400000  19.5213000  57.0393000  59.0460000  18.1573000  57.6273000
  54.2080000  18.7673000  62.3673000  54.0560000  18.5383000  61.4503000
  54.1980000  19.7243000  62.3803000  50.9760000  16.3403000  57.3513000
  51.9050000  16.4913000  57.1783000  50.5550000  16.4293000  56.4963000
  49.7750000  20.3653000  55.1213000  49.6360000  19.9973000  55.9943000
  48.9860000  20.8803000  54.9503000  50.3700000  25.4663000  46.4643000
  50.5450000  24.9953000  47.2783000  49.6830000  26.0933000  46.6923000
  51.3250000  19.7433000  52.5103000  50.9900000  19.7043000  53.4063000
  50.8260000  19.0783000  52.0373000  45.3000000  15.1503000  58.0353000
  45.1620000  14.4183000  58.6373000  46.2100000  15.0613000  57.7543000
  54.2610000  17.0893000  42.7843000  53.6440000  16.3643000  42.6873000
  53.7930000  17.8503000  42.4413000  47.9280000  14.8623000  57.5243000
  48.6380000  14.2223000  57.4823000  47.8850000  15.1143000  58.4463000
  55.9170000  21.7993000  60.4443000  55.8580000  21.1153000  59.7783000
  56.3190000  22.5413000  59.9933000  46.6410000  11.8493000  59.3433000
  46.1050000  11.3983000  59.9963000  46.0530000  11.9833000  58.6003000
  44.9360000  28.6153000  53.2383000  45.1760000  29.2473000  53.9163000
  44.0930000  28.2643000  53.5243000  46.0510000  11.3083000  41.9063000
  45.1740000  11.1873000  41.5423000  46.5270000  10.5163000  41.6543000
  55.9190000  19.7633000  58.6763000  55.0310000  19.4263000  58.7993000
  56.4880000  19.0313000  58.9133000  37.5710000  16.0953000  52.0003000
  38.2590000  15.7823000  51.4123000  37.4160000  16.9993000  51.7273000
  42.3750000  10.9843000  56.4293000  42.2910000  10.3773000  55.6943000
  41.5530000  11.4753000  56.4303000  49.4490000  24.4233000  55.6423000
  49.3760000  25.2293000  56.1543000  49.0060000  24.6223000  54.8173000
  49.2380000  23.6603000  49.1523000  48.4540000  24.2023000  49.2463000
  49.9370000  24.1783000  49.5523000  60.4000000  15.1743000  53.4383000
  60.3890000  16.0563000  53.0673000  59.5320000  14.8213000  53.2433000
  51.9090000  24.3223000  57.7983000  52.6210000  24.9573000  57.7253000
  51.4180000  24.4183000  56.9823000  53.6300000  18.2273000  49.3703000
  52.6960000  18.3473000  49.2003000  53.8080000  17.3243000  49.1063000
  49.1310000  11.6113000  51.5233000  48.7610000  11.0593000  52.2113000
  49.6270000  11.0073000  50.9703000  57.0180000  14.0693000  49.9053000
  57.4840000  14.9013000  49.8313000  57.4680000  13.6033000  50.6093000
  46.9600000  22.0713000  58.6183000  47.6610000  22.7053000  58.7713000
  46.4890000  22.4133000  57.8583000  55.0850000  20.4133000  46.9033000
  55.3610000  20.2993000  47.8133000  54.2160000  20.0153000  46.8643000
  54.7600000  14.6263000  56.4443000  54.1070000  14.8733000  55.7893000
  55.1380000  13.8123000  56.1103000  51.7210000  24.6623000  50.5463000
  51.9030000  23.8443000  51.0093000  52.5440000  24.8783000  50.1093000
  52.0550000  23.5883000  47.8083000  52.5840000  23.0783000  47.1953000
  52.3180000  23.2733000  48.6733000  50.8090000  15.3683000  62.9303000
  50.1330000  15.2673000  63.6003000  51.6310000  15.2123000  63.3943000
  42.5560000  21.6053000  55.5513000  43.1420000  20.8593000  55.6843000
  42.3590000  21.9153000  56.4353000  45.4100000  24.6403000  50.5683000
  44.7410000  25.1253000  50.0843000  45.2720000  24.8873000  51.4823000
  37.1480000  14.1753000  54.2723000  37.1870000  13.6423000  55.0663000
  36.6420000  13.6493000  53.6533000  49.5510000  26.6743000  57.1663000
  50.1030000  26.8383000  57.9313000  49.8910000  27.2653000  56.4943000
  44.5270000   9.0223000  57.7683000  44.5910000   9.8833000  57.3563000
  44.4640000   8.4093000  57.0353000  44.0030000  11.0943000  61.4153000
  44.6300000  10.7123000  62.0293000  43.1450000  10.8763000  61.7813000
  54.4020000  21.5003000  63.0213000  54.9460000  22.1133000  62.5263000
  53.8210000  22.0583000  63.5383000  40.7790000  12.9023000  47.3473000
  41.0740000  11.9933000  47.2943000  39.8780000  12.8813000  47.0253000
  52.6880000  24.6233000  54.1523000  52.5630000  23.8223000  53.6433000
  53.3460000  25.1173000  53.6643000  44.3090000  10.9773000  53.3303000
  43.5870000  11.5913000  53.1913000  45.0980000  11.5133000  53.2523000
  54.7510000  22.4233000  55.7803000  53.8040000  22.3043000  55.7083000
  55.0990000  21.5363000  55.8633000  42.5080000  10.5833000  47.4713000
  42.1790000   9.7033000  47.2893000  42.8620000  10.5283000  48.3593000
  51.7560000  22.2193000  51.9813000  51.6080000  21.2903000  52.1623000
  52.5810000  22.2413000  51.4963000  45.6220000  10.8713000  47.8393000
  45.9620000  11.3993000  47.1173000  46.0690000  11.2093000  48.6153000
  55.3590000  23.0423000  53.0673000  56.2840000  22.8363000  52.9303000
  55.1910000  22.7933000  53.9763000  46.4920000  13.0313000  53.5513000
  46.3460000  13.3453000  54.4433000  46.0140000  13.6503000  52.9983000
  55.1490000  23.5603000  48.4233000  55.3220000  22.9953000  47.6713000
  55.6420000  24.3603000  48.2413000  40.9660000  15.5723000  56.4903000
  40.4220000  16.3483000  56.6223000  41.8440000  15.9193000  56.3323000
  61.0030000  16.3243000  50.0423000  61.4460000  15.5753000  49.6443000
  60.1250000  16.3153000  49.6603000  56.1360000  22.8773000  45.5233000
  56.8310000  23.4973000  45.7423000  56.4790000  22.0263000  45.7983000
  41.7530000  14.6993000  59.3833000  41.0110000  14.8473000  59.9693000
  41.4320000  14.9593000  58.5193000  58.0350000  20.3273000  47.0523000
  58.5610000  20.6663000  46.3273000  57.9480000  19.3913000  46.8683000
  49.6970000  24.2403000  59.1813000  50.0060000  23.9953000  60.0533000
  50.4950000  24.4453000  58.6933000  49.7200000  26.3943000  51.4113000
  49.2800000  25.9023000  52.1053000  50.4700000  25.8513000  51.1713000
  42.1990000  22.5853000  51.4143000  43.0250000  22.2863000  51.0343000
  41.8480000  21.8163000  51.8633000  47.1670000  21.9383000  53.4843000
  46.5450000  21.2753000  53.1843000  47.8370000  21.9643000  52.8013000
  40.4000000  20.5043000  52.3733000  39.5630000  20.0763000  52.1913000
  40.3720000  20.6973000  53.3103000  46.7280000  20.4883000  46.9593000
  46.8770000  21.1723000  46.3063000  47.5350000  20.4693000  47.4743000
  49.4690000  11.1693000  59.8323000  48.6000000  11.4623000  59.5603000
  49.7050000  11.7533000  60.5523000  59.3460000  20.2293000  59.9143000
  59.0550000  20.5923000  60.7513000  58.7340000  19.5163000  59.7363000
  60.5460000  17.7943000  52.4353000  61.3810000  18.2333000  52.5983000
  60.6820000  17.3183000  51.6163000  57.5950000  15.3523000  58.3823000
  58.0710000  15.5453000  57.5743000  56.6720000  15.4083000  58.1373000
  44.4840000  16.5153000  47.9663000  44.2380000  15.6113000  48.1643000
  44.6530000  16.5163000  47.0243000  43.7530000  12.2483000  45.4643000
  43.0600000  12.3223000  44.8083000  43.5080000  11.4843000  45.9863000
  50.2280000  22.9833000  44.4313000  49.6550000  23.6023000  43.9783000
  50.8010000  23.5333000  44.9653000  56.0760000  22.5833000  42.5223000
  55.9980000  22.2493000  43.4153000  56.8970000  23.0753000  42.5213000
  58.7740000  15.4493000  55.7303000  58.7420000  14.5113000  55.9163000
  59.3840000  15.5283000  54.9963000  50.6120000  14.3193000  41.7723000
  51.5580000  14.1903000  41.8413000  50.2340000  13.5813000  42.2493000
  50.4960000  18.3713000  63.2323000  51.4170000  18.5493000  63.4263000
  50.4610000  17.4263000  63.0803000  48.7970000  12.2443000  41.7083000
  47.8900000  11.9473000  41.7843000  49.0740000  11.9473000  40.8413000
  39.7150000  13.5653000  52.1583000  39.3950000  12.7113000  51.8653000
  39.1680000  13.7803000  52.9133000  43.4930000  16.2813000  55.8753000
  43.7110000  17.2133000  55.8933000  43.9050000  15.9223000  56.6603000
  39.5830000  17.1853000  54.1273000  38.8900000  16.7703000  53.6143000
  40.3310000  17.2273000  53.5303000  48.2280000  15.2843000  64.0813000
  47.7450000  16.0843000  64.2883000  48.3150000  15.2953000  63.1283000
  41.4970000  17.1173000  52.0043000  41.4740000  17.2163000  51.0523000
  41.8070000  17.9633000  52.3253000  44.1560000  19.1743000  56.1183000
  45.1100000  19.1433000  56.0513000  43.9570000  18.7133000  56.9333000
  44.7460000  17.7453000  58.6853000  45.5650000  18.2393000  58.7093000
  45.0190000  16.8283000  58.6573000  42.5110000  24.7163000  53.1353000
  42.3760000  23.9563000  52.5693000  42.0940000  25.4403000  52.6683000
  53.6470000  19.9003000  42.1433000  54.3500000  20.1053000  42.7593000
  52.9230000  20.4683000  42.4083000  54.4760000  15.6513000  48.2633000
  54.4200000  16.1083000  47.4243000  55.0290000  14.8903000  48.0853000
  45.6680000  25.6133000  53.3473000  45.5510000  26.5583000  53.2453000
  44.8470000  25.3113000  53.7363000  55.5550000  20.3383000  44.1933000
  56.3900000  19.9063000  44.0103000  55.3940000  20.1673000  45.1203000
  55.2100000  16.8423000  45.5583000  55.1550000  16.6763000  44.6173000
  54.5850000  17.5493000  45.7153000  39.9990000  12.0783000  59.3853000
  40.6450000  11.5683000  59.8733000  39.7910000  12.8153000  59.9593000
  52.5250000  19.1463000  64.8843000  53.3940000  19.3213000  64.5223000
  52.0450000  19.9663000  64.7613000  46.6930000  26.2663000  56.5633000
  47.5960000  26.2993000  56.8793000  46.4670000  25.3363000  56.5773000
  48.4490000  25.0193000  53.2243000  47.4980000  25.0193000  53.1103000
  48.7520000  24.2733000  52.7073000  44.3390000   9.2253000  63.4823000
  45.2020000   8.8693000  63.6923000  43.7660000   8.8873000  64.1703000
  64.1840000  30.8553000  54.2883000  64.8220000  30.7363000  53.5853000
  64.0660000  31.8033000  54.3473000  60.9930000  30.8083000  54.2243000
  60.6550000  30.6923000  53.3363000  61.8620000  30.4073000  54.2053000
  56.8510000  32.6623000  50.2143000  56.2880000  32.5713000  49.4463000
  56.7370000  31.8423000  50.6943000  61.4750000  31.9623000  60.1833000
  61.4640000  31.5673000  59.3113000  61.6370000  31.2283000  60.7763000
  54.3980000  34.1573000  53.0533000  55.1900000  33.8163000  52.6373000
  54.6380000  34.2663000  53.9733000  62.4310000  36.3293000  45.5263000
  61.7800000  36.9143000  45.1393000  63.2260000  36.8593000  45.5853000
  56.3570000  33.4183000  45.9243000  57.1300000  32.8713000  45.7863000
  56.7100000  34.2823000  46.1363000  58.1950000  34.7453000  59.1313000
  57.9040000  35.6503000  59.0163000  58.8310000  34.7873000  59.8453000
  59.1210000  32.1233000  55.7213000  59.7170000  31.8993000  55.0073000
  59.1790000  31.3813000  56.3243000  58.6940000  29.5773000  43.5563000
  58.9460000  29.0553000  42.7943000  57.7560000  29.4133000  43.6593000
  63.7380000  28.5803000  51.3643000  64.5240000  28.1623000  51.0133000
  64.0020000  29.4853000  51.5323000  63.9090000  34.0183000  46.0623000
  63.2740000  34.0913000  46.7753000  63.5790000  34.6073000  45.3843000
  58.4130000  31.4803000  45.7593000  58.2970000  30.8043000  46.4273000
  58.5230000  30.9933000  44.9423000  60.7560000  30.9413000  49.4633000
  60.3920000  30.4143000  50.1753000  61.6130000  30.5513000  49.2903000
  60.3970000  25.9703000  44.4593000  60.5640000  26.8383000  44.8263000
  60.2070000  26.1323000  43.5353000  63.1540000  34.4313000  56.1263000
  62.8550000  35.3343000  56.0183000  62.8100000  34.1653000  56.9783000
  56.6060000  30.8833000  52.1603000  55.6810000  30.7503000  52.3673000
  56.8540000  31.6623000  52.6573000  60.3760000  28.4253000  45.4443000
  60.2560000  28.8713000  46.2833000  59.6810000  28.7743000  44.8853000
  53.9670000  30.5263000  52.9943000  54.0960000  30.7803000  53.9083000
  53.2860000  31.1193000  52.6743000  58.1370000  41.1963000  49.0933000
  58.0590000  42.1473000  49.1723000  57.5330000  40.8503000  49.7513000
  60.6280000  28.3693000  61.7493000  59.8520000  28.9283000  61.7393000
  61.2670000  28.8543000  62.2713000  58.8830000  31.1773000  61.3113000
  59.6240000  31.7163000  61.0343000  58.1770000  31.8043000  61.4683000
  64.3580000  33.3203000  59.9083000  64.7670000  32.8783000  59.1643000
  63.6360000  32.7453000  60.1623000  60.7120000  28.2573000  57.2823000
  61.5580000  28.6813000  57.4253000  60.6510000  27.6013000  57.9753000
  64.6810000  33.8803000  53.6633000  64.0520000  34.0453000  52.9613000
  64.2940000  34.2943000  54.4353000  63.8610000  25.9183000  58.9403000
  63.6180000  26.6723000  58.4033000  64.1370000  26.2963000  59.7743000
  65.8150000  32.4623000  57.6173000  66.0270000  33.1053000  56.9413000
  65.7680000  31.6283000  57.1503000  63.4180000  25.0733000  54.5213000
  62.5560000  25.3723000  54.8133000  63.4440000  25.2903000  53.5893000
  60.2340000  33.6183000  50.9283000  60.6980000  33.8963000  50.1393000
  59.9700000  32.7163000  50.7463000  57.1270000  33.1653000  53.8663000
  57.6970000  33.5933000  53.2283000  57.7170000  32.8833000  54.5653000
  59.1710000  29.7403000  47.7373000  59.8730000  30.1923000  48.2053000
  58.8390000  29.0983000  48.3653000  57.6190000  28.3313000  62.1123000
  56.9890000  29.0133000  62.3463000  57.5130000  28.2193000  61.1683000
  52.9140000  27.9983000  53.0393000  52.1230000  28.2543000  52.5633000
  53.4050000  28.8133000  53.1443000  54.8650000  28.3633000  49.9973000
  54.0680000  28.4753000  50.5163000  54.6380000  28.7013000  49.1323000
  60.6960000  34.8873000  57.9463000  60.7600000  35.3493000  58.7823000
  59.9870000  34.2573000  58.0743000  51.1970000  28.2513000  55.4713000
  51.4480000  29.1363000  55.7363000  51.7330000  28.0723000  54.6983000
  60.4100000  36.5543000  47.8143000  60.2750000  37.3993000  48.2423000
  60.9510000  36.7563000  47.0503000  53.8630000  34.0723000  48.3863000
  54.3760000  34.8663000  48.5373000  54.5160000  33.3743000  48.3203000
  55.6730000  37.1883000  50.4693000  55.8490000  38.1103000  50.2813000
  56.4680000  36.8743000  50.8983000  59.8140000  24.0493000  62.0673000
  60.5550000  24.6503000  61.9873000  60.0460000  23.3073000  61.5093000
  54.9580000  29.2353000  60.3453000  54.8430000  28.3333000  60.6463000
  54.1020000  29.4813000  59.9933000  62.0370000  37.1763000  61.9443000
  61.5940000  36.3903000  61.6263000  62.6990000  37.3643000  61.2783000
  56.7960000  38.7063000  56.4703000  57.3470000  38.5783000  55.6973000
  55.9570000  39.0053000  56.1193000  64.1350000  37.4573000  59.9723000
  64.1170000  38.2783000  59.4803000  65.0570000  37.3323000  60.1973000
  60.5930000  34.9713000  60.8143000  61.1250000  34.2103000  60.5843000
  60.0640000  34.6783000  61.5573000  63.7600000  20.0773000  56.3433000
  63.4160000  20.9673000  56.2673000  64.1280000  19.8873000  55.4803000
  51.8280000  32.4003000  49.1623000  52.6660000  32.8103000  48.9463000
  52.0060000  31.4603000  49.1323000  63.7250000  30.0683000  44.8513000
  63.2090000  30.8383000  45.0903000  63.4520000  29.3943000  45.4743000
  61.3090000  24.9133000  49.9093000  60.4540000  24.5243000  49.7303000
  61.7220000  24.9923000  49.0493000  62.8390000  22.4483000  54.3083000
  62.3360000  22.4113000  53.4953000  63.1320000  23.3573000  54.3683000
  59.0840000  22.5313000  53.3153000  59.9490000  22.3363000  52.9563000
  59.1510000  22.3023000  54.2423000  63.5130000  27.9413000  46.6773000
  63.2080000  28.2553000  47.5283000  64.4660000  28.0193000  46.7193000
  61.9580000  34.1003000  48.3263000  61.4300000  33.3653000  48.0133000
  61.4570000  34.8773000  48.0803000  56.6900000  24.7623000  50.6873000
  57.2640000  24.5393000  49.9543000  57.2770000  24.8313000  51.4403000
  57.0170000  26.7923000  44.7063000  56.1800000  27.1303000  45.0273000
  56.8770000  26.6573000  43.7693000  58.9920000  21.6363000  49.4143000
  58.3390000  21.3213000  48.7903000  58.9500000  21.0133000  50.1403000
  60.1030000  31.9183000  41.3293000  59.1960000  31.6873000  41.5293000
  60.6000000  31.1213000  41.5173000  63.0100000  40.6273000  44.2493000
  62.3360000  40.9313000  44.8583000  63.3970000  41.4303000  43.9003000
  62.2260000  28.1243000  53.7393000  61.3080000  28.3453000  53.5813000
  62.6420000  28.1993000  52.8803000  63.0090000  29.5233000  48.8693000
  63.7570000  30.0353000  48.5603000  63.2790000  29.2023000  49.7303000
  61.2820000  32.0193000  45.8523000  60.3730000  31.7353000  45.9493000
  61.3120000  32.4393000  44.9923000  65.4570000  26.5593000  50.8513000
  64.7200000  26.0473000  51.1823000  65.7100000  26.1193000  50.0393000
  64.9570000  37.4673000  50.5563000  65.2500000  38.0283000  49.8373000
  65.4670000  37.7603000  51.3113000  51.8510000  29.7403000  49.8333000
  51.6530000  29.1463000  49.1093000  51.2950000  29.4353000  50.5513000
  59.8310000  29.6323000  51.9533000  59.8850000  28.6793000  51.8773000
  59.0200000  29.7883000  52.4373000  60.9800000  33.5603000  43.1913000
  60.5420000  32.8433000  42.7313000  61.7210000  33.7873000  42.6293000
  57.7700000  28.2503000  49.7123000  56.9570000  28.5493000  50.1183000
  58.2660000  27.8553000  50.4293000  59.9210000  38.2453000  51.6453000
  59.8780000  38.4713000  50.7163000  60.8370000  38.0123000  51.7943000
  63.3670000  28.7143000  58.5433000  63.7220000  28.9413000  59.4033000
  64.0140000  29.0463000  57.9213000  57.2610000  25.8213000  55.3283000
  57.9010000  25.6803000  54.6303000  56.4290000  25.5353000  54.9523000
  58.0370000  35.1223000  51.4423000  58.8310000  34.6273000  51.2403000
  57.3260000  34.5933000  51.0783000  62.8570000  37.5033000  55.7933000
  62.9100000  38.0733000  56.5613000  61.9880000  37.6743000  55.4283000
  54.3450000  29.2663000  47.5183000  53.4150000  29.2043000  47.7353000
  54.4410000  28.7443000  46.7213000  54.2640000  25.7913000  50.1053000
  54.5250000  26.7063000  49.9963000  55.0860000  25.3243000  50.2553000
  55.7360000  27.2053000  57.2753000  56.4090000  26.9973000  56.6263000
  54.9090000  27.0073000  56.8363000  61.6390000  23.8313000  59.2923000
  60.9920000  24.5303000  59.1983000  62.4090000  24.2653000  59.6593000
  65.0470000  34.0963000  62.3673000  64.8950000  33.8673000  61.4503000
  65.0370000  35.0533000  62.3803000  61.8150000  31.6693000  57.3513000
  62.7450000  31.8213000  57.1783000  61.3950000  31.7583000  56.4963000
  60.6140000  35.6953000  55.1213000  60.4750000  35.3263000  55.9943000
  59.8260000  36.2093000  54.9503000  61.2090000  40.7953000  46.4643000
  61.3840000  40.3243000  47.2783000  60.5220000  41.4223000  46.6923000
  62.1650000  35.0733000  52.5103000  61.8300000  35.0333000  53.4063000
  61.6650000  34.4073000  52.0373000  56.1390000  30.4793000  58.0353000
  56.0010000  29.7473000  58.6373000  57.0500000  30.3903000  57.7543000
  65.1010000  32.4183000  42.7843000  64.4840000  31.6933000  42.6873000
  64.6320000  33.1793000  42.4413000  58.7670000  30.1913000  57.5243000
  59.4770000  29.5513000  57.4823000  58.7240000  30.4433000  58.4463000
  57.4800000  27.1783000  59.3433000  56.9440000  26.7273000  59.9963000
  56.8920000  27.3133000  58.6003000  55.7750000  43.9443000  53.2383000
  56.0150000  44.5763000  53.9163000  54.9320000  43.5933000  53.5243000
  56.8910000  26.6373000  41.9063000  56.0140000  26.5163000  41.5423000
  57.3660000  25.8453000  41.6543000  48.4110000  31.4253000  52.0003000
  49.0980000  31.1113000  51.4123000  48.2560000  32.3293000  51.7273000
  53.2140000  26.3143000  56.4293000  53.1300000  25.7063000  55.6943000
  52.3930000  26.8043000  56.4303000  60.2880000  39.7523000  55.6423000
  60.2150000  40.5583000  56.1543000  59.8460000  39.9513000  54.8173000
  60.0770000  38.9893000  49.1523000  59.2940000  39.5323000  49.2463000
  60.7760000  39.5073000  49.5523000  63.3870000  24.7993000  51.7963000
  63.8840000  24.0463000  51.4763000  62.6150000  24.8353000  51.2303000
  62.7480000  39.6513000  57.7983000  63.4610000  40.2863000  57.7253000
  62.2570000  39.7473000  56.9823000  64.4700000  33.5563000  49.3703000
  63.5350000  33.6763000  49.2003000  64.6470000  32.6533000  49.1063000
  59.9700000  26.9413000  51.5233000  59.6000000  26.3883000  52.2113000
  60.4660000  26.3363000  50.9703000  57.7990000  37.4003000  58.6183000
  58.5000000  38.0343000  58.7713000  57.3290000  37.7423000  57.8583000
  65.5990000  29.9553000  56.4443000  64.9460000  30.2023000  55.7893000
  65.9770000  29.1413000  56.1103000  62.5600000  39.9913000  50.5463000
  62.7420000  39.1733000  51.0093000  63.3830000  40.2083000  50.1093000
  62.8940000  38.9183000  47.8083000  63.4230000  38.4073000  47.1953000
  63.1570000  38.6023000  48.6733000  61.6480000  30.6973000  62.9303000
  60.9720000  30.5963000  63.6003000  62.4710000  30.5413000  63.3943000
  53.3960000  36.9343000  55.5513000  53.9810000  36.1883000  55.6843000
  53.1980000  37.2443000  56.4353000  56.2500000  39.9693000  50.5683000
  55.5810000  40.4543000  50.0843000  56.1110000  40.2163000  51.4823000
  47.9880000  29.5053000  54.2723000  48.0260000  28.9713000  55.0663000
  47.4820000  28.9783000  53.6533000  60.3900000  42.0043000  57.1663000
  60.9420000  42.1673000  57.9313000  60.7310000  42.5943000  56.4943000
  55.3670000  24.3513000  57.7683000  55.4310000  25.2133000  57.3563000
  55.3030000  23.7383000  57.0353000  54.8420000  26.4233000  61.4153000
  55.4690000  26.0413000  62.0293000  53.9850000  26.2053000  61.7813000
  51.6180000  28.2313000  47.3473000  51.9140000  27.3223000  47.2943000
  50.7170000  28.2103000  47.0253000  63.5270000  39.9523000  54.1523000
  63.4020000  39.1513000  53.6433000  64.1850000  40.4463000  53.6643000
  55.1480000  26.3073000  53.3303000  54.4270000  26.9203000  53.1913000
  55.9370000  26.8423000  53.2523000  65.5910000  37.7533000  55.7803000
  64.6440000  37.6333000  55.7083000  65.9390000  36.8653000  55.8633000
  57.9510000  23.6423000  59.6043000  58.4740000  23.8883000  60.3673000
  57.7320000  24.4743000  59.1843000  53.3470000  25.9123000  47.4713000
  53.0190000  25.0323000  47.2893000  53.7010000  25.8573000  48.3593000
  62.5950000  37.5483000  51.9813000  62.4480000  36.6203000  52.1623000
  63.4210000  37.5703000  51.4963000  56.4610000  26.2003000  47.8393000
  56.8010000  26.7283000  47.1173000  56.9090000  26.5383000  48.6153000
  59.1560000  24.5833000  57.2893000  58.8150000  23.7843000  57.6913000
  58.4500000  24.8843000  56.7173000  59.8070000  21.6683000  55.7423000
  60.6300000  21.1943000  55.6203000  60.0510000  22.4473000  56.2423000
  58.4480000  24.6973000  46.0383000  59.1690000  25.0753000  45.5353000
  57.8250000  25.4163000  46.1423000  62.5910000  25.4023000  46.9743000
  62.8080000  26.2843000  46.6733000  62.1110000  25.0103000  46.2453000
  57.3310000  28.3603000  53.5513000  57.1860000  28.6743000  54.4433000
  56.8540000  28.9793000  52.9983000  59.1910000  25.3513000  53.5993000
  59.1770000  24.4553000  53.2623000  59.9080000  25.3583000  54.2333000
  61.0440000  25.7843000  55.6443000  60.7850000  26.7063000  55.6433000
  60.5120000  25.3873000  56.3343000  51.8060000  30.9013000  56.4903000
  51.2610000  31.6773000  56.6223000  52.6840000  31.2483000  56.3323000
  58.5950000  24.2323000  48.8683000  58.7160000  23.3043000  49.0673000
  58.3050000  24.2463000  47.9563000  61.4640000  21.9173000  52.0053000
  61.4860000  21.9813000  51.0503000  61.8810000  21.0783000  52.1993000
  52.5920000  30.0283000  59.3833000  51.8510000  30.1763000  59.9693000
  52.2720000  30.2893000  58.5193000  60.5370000  39.5693000  59.1813000
  60.8460000  39.3243000  60.0533000  61.3340000  39.7743000  58.6933000
  60.5590000  41.7233000  51.4113000  60.1190000  41.2313000  52.1053000
  61.3100000  41.1803000  51.1713000  53.0380000  37.9143000  51.4143000
  53.8640000  37.6153000  51.0343000  52.6880000  37.1453000  51.8633000
  58.0060000  37.2673000  53.4843000  57.3840000  36.6043000  53.1843000
  58.6770000  37.2933000  52.8013000  51.2390000  35.8333000  52.3733000
  50.4020000  35.4053000  52.1913000  51.2110000  36.0263000  53.3103000
  58.0790000  25.7453000  63.0773000  58.1280000  26.6213000  62.6953000
  58.6210000  25.2033000  62.5043000  57.5680000  35.8173000  46.9593000
  57.7160000  36.5013000  46.3063000  58.3740000  35.7983000  47.4743000
  60.3090000  26.4983000  59.8323000  59.4390000  26.7923000  59.5603000
  60.5450000  27.0823000  60.5523000  55.3230000  31.8443000  47.9663000
  55.0770000  30.9403000  48.1643000  55.4920000  31.8463000  47.0243000
  63.0130000  22.7163000  57.3483000  63.5310000  23.4523000  57.0233000
  62.6580000  23.0233000  58.1833000  54.5920000  27.5773000  45.4643000
  53.8990000  27.6513000  44.8083000  54.3480000  26.8133000  45.9863000
  63.2640000  19.1363000  52.8683000  63.5440000  18.4693000  53.4943000
  64.0490000  19.3293000  52.3563000  61.0670000  38.3123000  44.4313000
  60.4950000  38.9313000  43.9783000  61.6400000  38.8623000  44.9653000
  65.1560000  24.6443000  56.8013000  64.5610000  24.9243000  56.1063000
  64.8710000  25.1333000  57.5733000  64.2870000  38.5963000  45.5623000
  65.2200000  38.5303000  45.7653000  64.1990000  39.4323000  45.1033000
  61.4520000  29.6483000  41.7723000  62.3980000  29.5193000  41.8413000
  61.0730000  28.9103000  42.2493000  61.3360000  33.7003000  63.2323000
  62.2560000  33.8783000  63.4263000  61.3010000  32.7563000  63.0803000
  59.6360000  27.5733000  41.7083000  58.7290000  27.2773000  41.7843000
  59.9140000  27.2763000  40.8413000  50.5540000  28.8943000  52.1583000
  50.2340000  28.0403000  51.8653000  50.0070000  29.1093000  52.9133000
  54.3320000  31.6103000  55.8753000  54.5510000  32.5423000  55.8933000
  54.7440000  31.2513000  56.6603000  61.2520000  22.1173000  47.8623000
  60.4420000  21.7723000  48.2383000  61.9410000  21.8083000  48.4513000
  63.1810000  21.1953000  49.4853000  63.7340000  21.6143000  50.1443000
  63.4180000  20.2683000  49.5273000  58.4060000  24.4323000  41.8493000
  59.2680000  24.7573000  42.1093000  58.5910000  23.6453000  41.3363000
  50.4230000  32.5143000  54.1273000  49.7290000  32.1003000  53.6143000
  51.1700000  32.5563000  53.5303000  65.0100000  22.7053000  51.1953000
  65.5100000  22.8173000  50.3863000  65.6530000  22.4013000  51.8353000
  59.0680000  30.6133000  64.0813000  58.5850000  31.4133000  64.2883000
  59.1540000  30.6243000  63.1283000  52.3360000  32.4463000  52.0043000
  52.3130000  32.5453000  51.0523000  52.6460000  33.2933000  52.3253000
  54.9950000  34.5043000  56.1183000  55.9490000  34.4723000  56.0513000
  54.7960000  34.0433000  56.9333000  55.5850000  33.0743000  58.6853000
  56.4040000  33.5683000  58.7093000  55.8590000  32.1573000  58.6573000
  53.3500000  40.0463000  53.1353000  53.2160000  39.2863000  52.5693000
  52.9330000  40.7703000  52.6683000  64.4860000  35.2293000  42.1433000
  65.1900000  35.4343000  42.7593000  63.7620000  35.7973000  42.4083000
  65.3160000  30.9803000  48.2633000  65.2590000  31.4373000  47.4243000
  65.8690000  30.2193000  48.0853000  56.5070000  40.9433000  53.3473000
  56.3900000  41.8873000  53.2453000  55.6860000  40.6403000  53.7363000
  66.0490000  32.1713000  45.5583000  65.9940000  32.0053000  44.6173000
  65.4240000  32.8783000  45.7153000  50.8390000  27.4083000  59.3853000
  51.4840000  26.8973000  59.8733000  50.6300000  28.1443000  59.9593000
  63.3640000  34.4763000  64.8843000  64.2330000  34.6503000  64.5223000
  62.8850000  35.2953000  64.7613000  59.3590000  21.6723000  45.1373000
  59.3470000  22.6163000  45.2943000  60.2510000  21.4893000  44.8433000
  57.5330000  41.5953000  56.5633000  58.4350000  41.6283000  56.8793000
  57.3060000  40.6653000  56.5773000  59.2880000  40.3483000  53.2243000
  58.3370000  40.3493000  53.1103000  59.5910000  39.6023000  52.7073000
  63.1740000  18.2663000  49.3923000  62.4070000  17.7123000  49.5373000
  63.5850000  18.3383000  50.2533000  55.1780000  24.5543000  63.4823000
  56.0410000  24.1983000  63.6923000  54.6050000  24.2163000  64.1703000
  65.2370000  49.4863000  53.0533000  66.0290000  49.1453000  52.6373000
  65.4770000  49.5953000  53.9733000  64.8060000  45.8553000  52.9943000
  64.9350000  46.1093000  53.9083000  64.1260000  46.4483000  52.6743000
  63.7530000  43.3273000  53.0393000  62.9630000  43.5833000  52.5633000
  64.2440000  44.1423000  53.1443000  65.7040000  43.6923000  49.9973000
  64.9080000  43.8043000  50.5163000  65.4770000  44.0313000  49.1323000
  62.0370000  43.5813000  55.4713000  62.2870000  44.4653000  55.7363000
  62.5730000  43.4013000  54.6983000  64.7030000  49.4013000  48.3863000
  65.2150000  50.1953000  48.5373000  65.3550000  48.7033000  48.3203000
  65.7970000  44.5643000  60.3453000  65.6830000  43.6623000  60.6463000
  64.9420000  44.8103000  59.9933000  62.6680000  47.7303000  49.1623000
  63.5050000  48.1393000  48.9463000  62.8450000  46.7903000  49.1323000
  62.6900000  45.0693000  49.8333000  62.4930000  44.4763000  49.1093000
  62.1350000  44.7643000  50.5513000  65.1850000  44.5953000  47.5183000
  64.2550000  44.5343000  47.7353000  65.2810000  44.0733000  46.7213000
  65.1030000  41.1213000  50.1053000  65.3640000  42.0353000  49.9963000
  65.9250000  40.6533000  50.2553000  59.2500000  46.7543000  52.0003000
  59.9370000  46.4403000  51.4123000  59.0950000  47.6583000  51.7273000
  64.0540000  41.6433000  56.4293000  63.9690000  41.0353000  55.6943000
  63.2320000  42.1343000  56.4303000  64.2350000  52.2633000  55.5513000
  64.8210000  51.5183000  55.6843000  64.0380000  52.5743000  56.4353000
  58.8270000  44.8343000  54.2723000  58.8650000  44.3003000  55.0663000
  58.3210000  44.3073000  53.6533000  62.4580000  43.5603000  47.3473000
  62.7530000  42.6513000  47.2943000  61.5570000  43.5393000  47.0253000
  64.1870000  41.2423000  47.4713000  63.8580000  40.3613000  47.2893000
  64.5410000  41.1863000  48.3593000  62.6450000  46.2303000  56.4903000
  62.1010000  47.0063000  56.6223000  63.5230000  46.5773000  56.3323000
  63.4320000  45.3573000  59.3833000  62.6900000  45.5053000  59.9693000
  63.1110000  45.6183000  58.5193000  63.8770000  53.2443000  51.4143000
  64.7030000  52.9443000  51.0343000  63.5270000  52.4743000  51.8633000
  62.0780000  51.1623000  52.3733000  61.2420000  50.7343000  52.1913000
  62.0510000  51.3553000  53.3103000  65.4320000  42.9063000  45.4643000
  64.7390000  42.9803000  44.8083000  65.1870000  42.1423000  45.9863000
  61.3930000  44.2233000  52.1583000  61.0740000  43.3703000  51.8653000
  60.8470000  44.4383000  52.9133000  65.1710000  46.9393000  55.8753000
  65.3900000  47.8713000  55.8933000  65.5840000  46.5803000  56.6603000
  61.2620000  47.8433000  54.1273000  60.5680000  47.4293000  53.6143000
  62.0090000  47.8853000  53.5303000  63.1760000  47.7753000  52.0043000
  63.1530000  47.8743000  51.0523000  63.4860000  48.6223000  52.3253000
  64.1900000  55.3753000  53.1353000  64.0550000  54.6153000  52.5693000
  63.7730000  56.0993000  52.6683000  61.6780000  42.7373000  59.3853000
  62.3240000  42.2273000  59.8733000  61.4700000  43.4743000  59.9593000
  58.1370000  18.2023000  35.8183000  58.0590000  19.1533000  35.8963000
  57.5330000  17.8573000  36.4753000  55.6730000  14.1943000  37.1933000
  55.8490000  15.1163000  37.0053000  56.4680000  13.8803000  37.6233000
  56.7960000  15.7123000  43.1943000  57.3470000  15.5843000  42.4223000
  55.9570000  16.0123000  42.8443000  63.0100000  17.6343000  30.9743000
  62.3360000  17.9373000  31.5823000  63.3970000  18.4373000  30.6243000
  59.9210000  15.2523000  38.3703000  59.8780000  15.4783000  37.4413000
  60.8370000  15.0183000  38.5183000  61.2090000  17.8023000  33.1883000
  61.3840000  17.3303000  34.0033000  60.5220000  18.4283000  33.4173000
  55.7750000  20.9513000  39.9623000  56.0150000  21.5823000  40.6403000
  54.9320000  20.5993000  40.2493000  60.2880000  16.7583000  42.3673000
  60.2150000  17.5643000  42.8783000  59.8460000  16.9583000  41.5413000
  60.0770000  15.9963000  35.8773000  59.2940000  16.5383000  35.9713000
  60.7760000  16.5133000  36.2763000  62.7480000  16.6573000  44.5223000
  63.4610000  17.2923000  44.4503000  62.2570000  16.7543000  43.7063000
  57.7990000  14.4073000  45.3433000  58.5000000  15.0403000  45.4963000
  57.3290000  14.7483000  44.5823000  62.5600000  16.9973000  37.2713000
  62.7420000  16.1793000  37.7343000  63.3830000  17.2143000  36.8333000
  62.8940000  15.9243000  34.5323000  63.4230000  15.4133000  33.9203000
  63.1570000  15.6083000  35.3973000  53.3960000  13.9403000  42.2763000
  53.9810000  13.1953000  42.4093000  53.1980000  14.2513000  43.1603000
  56.2500000  16.9753000  37.2923000  55.5810000  17.4603000  36.8093000
  56.1110000  17.2223000  38.2073000  60.3900000  19.0103000  43.8913000
  60.9420000  19.1733000  44.6553000  60.7310000  19.6003000  43.2193000
  63.5270000  16.9583000  40.8773000  63.4020000  16.1573000  40.3683000
  64.1850000  17.4533000  40.3883000  60.5370000  16.5763000  45.9053000
  60.8460000  16.3313000  46.7783000  61.3340000  16.7803000  45.4173000
  60.5590000  18.7293000  38.1363000  60.1190000  18.2373000  38.8293000
  61.3100000  18.1873000  37.8953000  53.0380000  14.9213000  38.1383000
  53.8640000  14.6213000  37.7583000  52.6880000  14.1513000  38.5873000
  58.0060000  14.2733000  40.2083000  57.3840000  13.6103000  39.9083000
  58.6770000  14.2993000  39.5263000  51.2390000  12.8393000  39.0973000
  50.4020000  12.4113000  38.9163000  51.2110000  13.0323000  40.0343000
  61.0670000  15.3183000  31.1553000  60.4950000  15.9373000  30.7023000
  61.6400000  15.8683000  31.6893000  53.3500000  17.0523000  39.8603000
  53.2160000  16.2923000  39.2943000  52.9330000  17.7763000  39.3933000
  56.5070000  17.9493000  40.0723000  56.3900000  18.8933000  39.9693000
  55.6860000  17.6463000  40.4603000  57.5330000  18.6023000  43.2873000
  58.4350000  18.6343000  43.6043000  57.3060000  17.6723000  43.3023000
  59.2880000  17.3553000  39.9483000  58.3370000  17.3553000  39.8353000
  59.5910000  16.6083000  39.4323000  65.2370000  26.4923000  39.7773000
  66.0290000  26.1513000  39.3623000  65.4770000  26.6023000  40.6973000
  64.8060000  22.8613000  39.7193000  64.9350000  23.1153000  40.6323000
  64.1260000  23.4543000  39.3993000  63.7530000  20.3343000  39.7643000
  62.9630000  20.5893000  39.2883000  64.2440000  21.1493000  39.8693000
  65.7040000  20.6983000  36.7223000  64.9080000  20.8103000  37.2403000
  65.4770000  21.0373000  35.8563000  62.0370000  20.5873000  42.1953000
  62.2870000  21.4713000  42.4613000  62.5730000  20.4073000  41.4233000
  64.7030000  26.4073000  35.1113000  65.2150000  27.2013000  35.2613000
  65.3550000  25.7103000  35.0443000  65.7970000  21.5703000  47.0693000
  65.6830000  20.6693000  47.3703000  64.9420000  21.8163000  46.7183000
  62.6680000  24.7363000  35.8873000  63.5050000  25.1463000  35.6703000
  62.8450000  23.7963000  35.8573000  62.6900000  22.0753000  36.5583000
  62.4930000  21.4823000  35.8333000  62.1350000  21.7703000  37.2763000
  65.1850000  21.6013000  34.2423000  64.2550000  21.5403000  34.4593000
  65.2810000  21.0793000  33.4463000  65.1030000  18.1273000  36.8303000
  65.3640000  19.0413000  36.7213000  65.9250000  17.6593000  36.9803000
  59.2500000  23.7603000  38.7253000  59.9370000  23.4463000  38.1373000
  59.0950000  24.6643000  38.4513000  64.0540000  18.6493000  43.1533000
  63.9690000  18.0423000  42.4183000  63.2320000  19.1403000  43.1543000
  64.2350000  29.2693000  42.2763000  64.8210000  28.5243000  42.4093000
  64.0380000  29.5803000  43.1603000  58.8270000  21.8403000  40.9963000
  58.8650000  21.3063000  41.7903000  58.3210000  21.3143000  40.3783000
  62.4580000  20.5663000  34.0723000  62.7530000  19.6573000  34.0193000
  61.5570000  20.5453000  33.7503000  64.1870000  18.2483000  34.1963000
  63.8580000  17.3683000  34.0133000  64.5410000  18.1933000  35.0833000
  62.6450000  23.2363000  43.2143000  62.1010000  24.0123000  43.3463000
  63.5230000  23.5833000  43.0563000  63.8770000  30.2503000  38.1383000
  64.7030000  29.9503000  37.7583000  63.5270000  29.4803000  38.5873000
  62.0780000  28.1683000  39.0973000  61.2420000  27.7413000  38.9163000
  62.0510000  28.3623000  40.0343000  65.4320000  19.9123000  32.1893000
  64.7390000  19.9873000  31.5333000  65.1870000  19.1483000  32.7113000
  61.3930000  21.2293000  38.8823000  61.0740000  20.3763000  38.5903000
  60.8470000  21.4443000  39.6383000  65.1710000  23.9463000  42.5993000
  65.3900000  24.8773000  42.6183000  65.5840000  23.5863000  43.3853000
  61.2620000  24.8503000  40.8513000  60.5680000  24.4353000  40.3383000
  62.0090000  24.8923000  40.2553000  63.1760000  24.7813000  38.7283000
  63.1530000  24.8803000  37.7763000  63.4860000  25.6283000  39.0503000
  64.1900000  32.3813000  39.8603000  64.0550000  31.6213000  39.2943000
  63.7730000  33.1053000  39.3933000  61.6780000  19.7433000  46.1093000
  62.3240000  19.2333000  46.5983000  61.4700000  20.4803000  46.6833000
   8.2350000  28.6643000  58.8013000   7.5830000  29.2503000  58.4143000
   9.0290000  29.1953000  58.8613000   9.7120000  26.3533000  59.3383000
   9.0770000  26.4273000  60.0503000   9.3820000  26.9433000  58.6603000
   3.9400000  33.5313000  62.3693000   3.8620000  34.4823000  62.4473000
   3.3360000  33.1863000  63.0263000  11.8770000  21.2333000  59.5483000
  12.7890000  21.4663000  59.3723000  11.3680000  21.8173000  58.9853000
   6.2140000  28.8893000  61.0893000   6.0780000  29.7353000  61.5183000
   6.7540000  29.0913000  60.3263000   9.5280000  22.4033000  58.1263000
   9.0120000  23.1743000  58.3653000   9.2560000  21.7303000  58.7493000
  14.5010000  25.1573000  60.0623000  13.7240000  24.8183000  59.6173000
  15.1800000  25.1623000  59.3873000   5.9060000  24.2533000  54.6053000
   4.9990000  24.0223000  54.8043000   6.4030000  23.4573000  54.7923000
   8.8130000  32.9633000  57.5253000   8.1390000  33.2663000  58.1333000
   9.2000000  33.7663000  57.1753000  12.3170000  27.9653000  62.8963000
  11.8630000  27.1243000  62.9533000  11.6860000  28.6013000  63.2343000
   6.7830000  25.8953000  56.4663000   6.3450000  25.1793000  56.0073000
   7.5240000  26.1233000  55.9053000   7.0120000  33.1313000  59.7393000
   7.1870000  32.6603000  60.5543000   6.3260000  33.7573000  59.9673000
  10.9040000  24.7543000  56.0593000  10.2870000  24.0283000  55.9633000
  10.4360000  25.5153000  55.7163000   5.8800000  31.3253000  62.4283000
   5.0970000  31.8673000  62.5223000   6.5790000  31.8423000  62.8273000
  11.7280000  28.0783000  60.1793000  12.0040000  27.9633000  61.0883000
  10.8580000  27.6793000  60.1403000   8.6970000  31.2533000  61.0833000
   9.2260000  30.7423000  60.4703000   8.9600000  30.9373000  61.9483000
  11.7910000  31.2253000  61.6993000  11.9650000  30.6593000  60.9463000
  12.2840000  32.0253000  61.5173000  17.6450000  23.9883000  63.3183000
  18.0880000  23.2393000  62.9203000  16.7680000  23.9793000  62.9353000
  12.7790000  30.5413000  58.7993000  13.4740000  31.1623000  59.0173000
  13.1210000  29.6913000  59.0743000  14.6780000  27.9913000  60.3273000
  15.2030000  28.3303000  59.6023000  14.5900000  27.0563000  60.1443000
   6.8700000  30.6483000  57.7063000   6.2980000  31.2673000  57.2533000
   7.4440000  31.1983000  58.2403000  10.0900000  30.9313000  58.8373000
  11.0230000  30.8663000  59.0403000  10.0020000  31.7673000  58.3783000
  12.7190000  30.2483000  55.7973000  12.6400000  29.9143000  56.6913000
  13.5400000  30.7403000  55.7973000   7.2550000  21.9843000  55.0483000
   8.2010000  21.8543000  55.1173000   6.8760000  21.2453000  55.5253000
   5.4390000  19.9093000  54.9833000   4.5320000  19.6123000  55.0593000
   5.7170000  19.6123000  54.1173000  10.2890000  27.5653000  55.4183000
  10.9930000  27.7703000  56.0343000   9.5650000  28.1323000  55.6833000
  12.1980000  28.0033000  57.4683000  13.0320000  27.5713000  57.2863000
  12.0360000  27.8313000  58.3963000  11.8520000  24.5063000  58.8343000
  11.7970000  24.3413000  57.8933000  11.2270000  25.2143000  58.9903000
  20.8260000  38.5203000  67.5643000  21.4640000  38.4013000  66.8603000
  20.7080000  39.4683000  67.6233000  17.6350000  38.4733000  67.5003000
  17.2970000  38.3573000  66.6123000  18.5040000  38.0723000  67.4803000
  13.4940000  40.3263000  63.4903000  12.9300000  40.2353000  62.7213000
  13.3790000  39.5063000  63.9703000  11.0400000  41.8213000  66.3283000
  11.8330000  41.4803000  65.9133000  11.2800000  41.9313000  67.2483000
  12.9990000  41.0823000  59.2003000  13.7730000  40.5353000  59.0613000
  13.3520000  41.9473000  59.4113000  14.8380000  42.4103000  72.4063000
  14.5470000  43.3143000  72.2913000  15.4740000  42.4513000  73.1213000
  15.7640000  39.7883000  68.9973000  16.3600000  39.5633000  68.2823000
  15.8210000  39.0463000  69.5993000  15.3360000  37.2413000  56.8323000
  15.5890000  36.7203000  56.0703000  14.3990000  37.0783000  56.9343000
  20.3800000  36.2453000  64.6393000  21.1670000  35.8273000  64.2883000
  20.6440000  37.1503000  64.8073000  25.7810000  36.1833000  65.5423000
  26.5140000  35.6123000  65.7763000  25.0250000  35.7953000  65.9833000
  15.0560000  39.1443000  59.0343000  14.9390000  38.4693000  59.7023000
  15.1660000  38.6583000  58.2173000  17.3990000  38.6053000  62.7393000
  17.0350000  38.0783000  63.4503000  18.2560000  38.2153000  62.5653000
  17.0390000  33.6343000  57.7353000  17.2070000  34.5023000  58.1023000
  16.8490000  33.7973000  56.8113000  19.7970000  42.0963000  69.4013000
  19.4970000  42.9983000  69.2933000  19.4520000  41.8293000  70.2543000
  13.2480000  38.5473000  65.4353000  12.3230000  38.4153000  65.6433000
  13.4970000  39.3273000  65.9323000  23.1970000  34.6143000  67.0813000
  22.2880000  34.5463000  66.7873000  23.1450000  35.0913000  67.9093000
  17.0180000  36.0903000  58.7193000  16.8980000  36.5363000  59.5583000
  16.3240000  36.4393000  58.1613000  10.6090000  38.1913000  66.2693000
  10.7380000  38.4443000  67.1833000   9.9290000  38.7833000  65.9503000
  14.7790000  48.8603000  62.3693000  14.7010000  49.8113000  62.4473000
  14.1750000  48.5153000  63.0263000  25.0630000  32.8163000  68.8593000
  24.4200000  33.1093000  68.2133000  24.5580000  32.7013000  69.6643000
  21.0010000  40.9853000  73.1843000  21.4090000  40.5433000  72.4393000
  20.2790000  40.4103000  73.4373000  21.3240000  41.5453000  66.9393000
  20.6950000  41.7093000  66.2363000  20.9360000  41.9593000  67.7103000
  25.2030000  42.4803000  64.2933000  24.5180000  42.8603000  63.7433000
  25.2870000  43.0903000  65.0273000  22.4580000  40.1263000  70.8933000
  22.6700000  40.7693000  70.2163000  22.4110000  39.2923000  70.4253000
  20.0600000  32.7383000  67.7973000  19.1990000  33.0363000  68.0883000
  20.0870000  32.9553000  66.8653000  16.8770000  41.2823000  64.2043000
  17.3400000  41.5613000  63.4143000  16.6120000  40.3813000  64.0213000
  13.7690000  40.8293000  67.1423000  14.3390000  41.2583000  66.5043000
  14.3600000  40.5483000  67.8403000  15.8140000  37.4053000  61.0133000
  16.5160000  37.8573000  61.4803000  15.4820000  36.7633000  61.6413000
   9.5560000  35.6633000  66.3153000   8.7660000  35.9193000  65.8393000
  10.0470000  36.4783000  66.4203000  23.5720000  43.0033000  69.0653000
  24.3940000  42.6013000  68.7833000  23.5690000  42.9003000  70.0173000
  11.5080000  36.0273000  63.2733000  10.7110000  36.1393000  63.7913000
  11.2800000  36.3663000  62.4073000  17.3380000  42.5523000  71.2213000
  17.4030000  43.0143000  72.0573000  16.6290000  41.9223000  71.3493000
  31.6630000  39.3473000  65.4143000  30.9090000  38.7783000  65.2583000
  31.7980000  39.3143000  66.3613000  17.0530000  44.2193000  61.0893000
  16.9170000  45.0643000  61.5183000  17.5940000  44.4213000  60.3263000
  10.5060000  41.7363000  61.6623000  11.0180000  42.5303000  61.8123000
  11.1580000  41.0393000  61.5953000  12.3150000  44.8533000  63.7443000
  12.4920000  45.7753000  63.5563000  13.1110000  44.5393000  64.1743000
  18.6800000  44.8413000  75.2193000  18.2360000  44.0553000  74.9013000
  19.3410000  45.0293000  74.5533000  13.4380000  46.3713000  69.7453000
  13.9890000  46.2423000  68.9733000  12.6000000  46.6703000  69.3953000
  20.7780000  45.1213000  73.2473000  20.7600000  45.9423000  72.7553000
  21.7000000  44.9973000  73.4723000   8.4710000  40.0653000  62.4383000
   9.3080000  40.4753000  62.2213000   8.6490000  39.1253000  62.4083000
  17.9520000  32.5783000  63.1853000  17.0960000  32.1883000  63.0053000
  18.3650000  32.6573000  62.3253000  19.4820000  30.1123000  67.5843000
  18.9780000  30.0753000  66.7713000  19.7750000  31.0213000  67.6443000
  18.6000000  41.7643000  61.6013000  18.0730000  41.0303000  61.2893000
  18.0990000  42.5423000  61.3553000  23.5800000  39.9593000  66.7183000
  22.9220000  40.6493000  66.8063000  24.3840000  40.3493000  67.0623000
  13.3320000  32.4263000  63.9623000  13.9070000  32.2043000  63.2293000
  13.9190000  32.4953000  64.7153000  22.3900000  38.3143000  64.7693000
  22.9030000  38.9473000  65.2713000  23.0400000  37.7143000  64.4033000
  13.6590000  34.4573000  57.9823000  12.8230000  34.7943000  58.3033000
  13.5200000  34.3223000  57.0443000  15.6350000  29.3003000  62.6903000
  14.9810000  28.9853000  62.0653000  15.5930000  28.6783000  63.4163000
  18.8680000  35.7893000  67.0143000  17.9510000  36.0103000  66.8573000
  19.2840000  35.8633000  66.1563000  19.6520000  37.1883000  62.1453000
  20.3990000  37.7003000  61.8353000  19.9210000  36.8663000  63.0053000
  17.9250000  39.6843000  59.1273000  17.0160000  39.3993000  59.2253000
  17.9540000  40.1033000  58.2683000  23.1560000  43.2943000  62.8963000
  22.7030000  42.4533000  62.9533000  22.5260000  43.9303000  63.2343000
  22.1000000  34.2233000  64.1273000  21.3620000  33.7113000  64.4583000
  22.3520000  33.7833000  63.3153000  21.6000000  45.1323000  63.8313000
  21.8920000  45.6923000  63.1133000  22.1100000  45.4253000  64.5873000
  22.2010000  27.0013000  64.7213000  22.5070000  26.1413000  64.4333000
  22.9260000  27.5933000  64.5213000   8.4930000  37.4043000  63.1093000
   8.2960000  36.8113000  62.3843000   7.9380000  37.0993000  63.8263000
  16.4730000  37.2963000  65.2283000  16.5280000  36.3443000  65.1533000
  15.6620000  37.4523000  65.7123000  17.6220000  41.2243000  56.4663000
  17.1840000  40.5083000  56.0073000  18.3630000  41.4523000  55.9053000
  14.4120000  35.9143000  62.9873000  13.5990000  36.2143000  63.3943000
  14.9080000  35.5203000  63.7053000  16.5630000  45.9103000  64.9213000
  16.5210000  46.1363000  63.9923000  17.4790000  45.6763000  65.0693000
  25.7390000  39.5003000  62.5243000  25.6010000  39.6903000  61.5963000
  25.3830000  40.2623000  62.9813000  25.7660000  41.5683000  67.5353000
  26.2000000  41.4753000  68.3833000  26.4800000  41.5443000  66.8973000
  14.6800000  42.7863000  64.7173000  15.4740000  42.2913000  64.5153000
  13.9690000  42.2583000  64.3543000  19.4990000  45.1683000  69.0683000
  19.5530000  45.7373000  69.8363000  18.6310000  45.3383000  68.7043000
  10.9880000  36.9313000  60.7933000  10.0580000  36.8693000  61.0103000
  11.0840000  36.4083000  59.9973000  10.9070000  33.4563000  63.3813000
  11.1670000  34.3713000  63.2723000  11.7280000  32.9883000  63.5303000
  26.6280000  41.6103000  70.0683000  26.8220000  42.5153000  70.3143000
  26.5280000  41.1513000  70.9023000  18.4580000  39.3343000  70.6273000
  19.3870000  39.4853000  70.4543000  18.0370000  39.4223000  69.7723000
  17.2570000  43.3593000  68.3973000  17.1180000  42.9913000  69.2693000
  16.4680000  43.8743000  68.2253000  17.8520000  48.4603000  59.7393000
  18.0270000  47.9893000  60.5543000  17.1650000  49.0873000  59.9673000
  18.8070000  42.7373000  65.7863000  18.4720000  42.6973000  66.6813000
  18.3080000  42.0723000  65.3133000  23.3990000  44.7933000  73.7203000
  23.3400000  44.1093000  73.0533000  23.8010000  45.5353000  73.2683000
  13.5330000  34.3013000  55.1823000  12.6560000  34.1803000  54.8183000
  14.0090000  33.5103000  54.9293000  23.4000000  42.7573000  71.9513000
  22.5130000  42.4193000  72.0743000  23.9700000  42.0253000  72.1883000
   5.0530000  39.0893000  65.2763000   5.7400000  38.7753000  64.6883000
   4.8980000  39.9933000  65.0023000  16.9310000  47.4173000  68.9173000
  16.8580000  48.2223000  69.4293000  16.4880000  47.6163000  68.0923000
  16.7190000  46.6543000  62.4283000  15.9360000  47.1963000  62.5223000
  17.4190000  47.1713000  62.8273000  20.0290000  32.4643000  65.0713000
  20.5260000  31.7113000  64.7513000  19.2580000  32.5003000  64.5053000
  27.8820000  38.1683000  66.7133000  27.8710000  39.0503000  66.3423000
  27.0140000  37.8153000  66.5183000  19.3900000  47.3163000  71.0733000
  20.1030000  47.9503000  71.0013000  18.8990000  47.4123000  70.2573000
  21.1120000  41.2213000  62.6453000  20.1780000  41.3413000  62.4753000
  21.2900000  40.3183000  62.3813000  16.6130000  34.6053000  64.7983000
  16.2420000  34.0523000  65.4863000  17.1090000  34.0013000  64.2463000
  24.4990000  37.0623000  63.1803000  24.9650000  37.8953000  63.1063000
  24.9500000  36.5973000  63.8853000  14.4420000  45.0653000  71.8943000
  15.1430000  45.6993000  72.0473000  13.9710000  45.4063000  71.1333000
  22.5670000  43.4073000  60.1793000  22.8430000  43.2923000  61.0883000
  21.6970000  43.0093000  60.1403000  22.4710000  29.4303000  67.2193000
  21.5570000  29.6613000  67.3873000  22.9000000  29.5143000  68.0713000
  22.2420000  37.6193000  69.7193000  21.5890000  37.8673000  69.0643000
  22.6200000  36.8063000  69.3853000  19.2020000  47.6553000  63.8223000
  19.3850000  46.8383000  64.2853000  20.0260000  47.8723000  63.3843000
  19.5370000  46.5823000  61.0833000  20.0650000  46.0713000  60.4703000
  19.7990000  46.2663000  61.9483000  12.8920000  47.6343000  63.8433000
  12.2230000  48.1183000  63.3603000  12.7530000  47.8813000  64.7583000
  17.0330000  49.6683000  70.4413000  17.5850000  49.8313000  71.2063000
  17.3730000  50.2593000  69.7693000  21.8840000  44.4943000  76.2963000
  22.4280000  45.1073000  75.8023000  21.3030000  45.0523000  76.8133000
   8.2610000  35.8963000  60.6233000   8.5560000  34.9873000  60.5693000
   7.3600000  35.8743000  60.3013000  20.1700000  47.6163000  67.4283000
  20.0450000  46.8153000  66.9193000  20.8270000  48.1113000  66.9393000
  11.7900000  33.9713000  66.6063000  11.0690000  34.5853000  66.4663000
  12.5800000  34.5073000  66.5273000  22.2330000  45.4173000  69.0563000
  21.2860000  45.2983000  68.9843000  22.5810000  44.5293000  69.1383000
   9.9900000  33.5773000  60.7473000   9.6610000  32.6973000  60.5643000
  10.3440000  33.5223000  61.6343000  19.2380000  45.2133000  65.2563000
  19.0900000  44.2843000  65.4373000  20.0630000  45.2353000  64.7723000
  13.1040000  33.8643000  61.1143000  13.4440000  34.3933000  60.3923000
  13.5510000  34.2023000  61.8903000  22.8410000  46.0353000  66.3433000
  23.7660000  45.8303000  66.2053000  22.6730000  45.7873000  67.2523000
  15.0910000  32.3623000  59.3143000  15.8120000  32.7403000  58.8103000
  14.4670000  33.0813000  59.4173000  19.2340000  33.0663000  60.2493000
  19.4500000  33.9493000  59.9483000  18.7530000  32.6753000  59.5203000
  13.9740000  36.0253000  66.8273000  13.8280000  36.3393000  67.7193000
  13.4960000  36.6433000  66.2743000  15.8330000  33.0153000  66.8753000
  15.8200000  32.1193000  66.5383000  16.5510000  33.0223000  67.5083000
  22.6310000  46.5543000  61.6993000  22.8040000  45.9893000  60.9463000
  23.1240000  47.3543000  61.5173000  15.2370000  31.8973000  62.1433000
  15.3590000  30.9683000  62.3423000  14.9470000  31.9103000  61.2313000
  18.1060000  29.5823000  65.2803000  18.1280000  29.6463000  64.3253000
  18.5230000  28.7423000  65.4743000  28.4850000  39.3183000  63.3183000
  28.9280000  38.5683000  62.9203000  27.6070000  39.3093000  62.9353000
  23.6180000  45.8713000  58.7993000  24.3130000  46.4913000  59.0173000
  23.9600000  45.0203000  59.0743000  25.5170000  43.3213000  60.3273000
  26.0420000  43.6593000  59.6023000  25.4300000  42.3853000  60.1443000
  17.1790000  47.2343000  72.4563000  17.4880000  46.9893000  73.3293000
  17.9770000  47.4393000  71.9683000  17.2010000  49.3883000  64.6873000
  16.7620000  48.8953000  65.3803000  17.9520000  48.8453000  64.4463000
   9.6810000  45.5793000  64.6893000  10.5060000  45.2793000  64.3093000
   9.3300000  44.8103000  65.1383000  14.6490000  44.9323000  66.7593000
  14.0270000  44.2693000  66.4593000  15.3190000  44.9583000  66.0763000
   7.8810000  43.4983000  65.6483000   7.0450000  43.0703000  65.4673000
   7.8540000  43.6913000  66.5853000  25.2070000  43.9543000  75.6323000
  24.4160000  43.9363000  75.0933000  24.9700000  44.4933000  76.3873000
  25.3260000  40.8033000  72.9463000  25.3760000  40.6383000  73.8873000
  25.2180000  39.9363000  72.5563000  14.2100000  43.4823000  60.2353000
  14.3590000  44.1663000  59.5823000  15.0170000  43.4623000  60.7503000
  26.8280000  43.2233000  73.1903000  26.5370000  43.5863000  74.0263000
  26.2160000  42.5103000  73.0113000  28.0280000  40.7883000  65.7103000
  28.8630000  41.2273000  65.8743000  28.1640000  40.3123000  64.8913000
  25.0770000  38.3463000  71.6583000  25.5520000  38.5393000  70.8503000
  24.1540000  38.4023000  71.4123000  11.9650000  39.5083000  61.2413000
  11.7200000  38.6053000  61.4393000  12.1350000  39.5103000  60.2993000
  11.2350000  35.2413000  58.7403000  10.5420000  35.3163000  58.0843000
  10.9900000  34.4773000  59.2623000  23.7770000  35.2233000  69.8913000
  24.7290000  35.3223000  69.9123000  23.6080000  34.4303000  70.4013000
  20.9290000  46.2603000  58.8373000  21.8620000  46.1953000  59.0403000
  20.8420000  47.0963000  58.3783000  26.2560000  38.4433000  69.0053000
  26.2240000  37.5053000  69.1913000  26.8660000  38.5223000  68.2723000
  18.0940000  37.3133000  55.0483000  19.0400000  37.1833000  55.1173000
  17.7160000  36.5743000  55.5253000  26.4050000  35.2343000  69.0513000
  25.8890000  34.4503000  68.8643000  27.2890000  34.9063000  69.2153000
  24.0670000  28.9783000  65.0103000  23.8690000  28.6703000  65.8953000
  24.6760000  29.7053000  65.1403000  32.0740000  39.5053000  68.1463000
  32.8040000  39.2433000  68.7063000  31.4640000  38.7683000  68.1863000
  30.1550000  37.6463000  68.7433000  29.4290000  37.5113000  68.1353000
  29.7400000  37.9533000  69.5493000  16.2790000  35.2383000  54.9833000
  15.3720000  34.9413000  55.0593000  16.5560000  34.9413000  54.1173000
   7.1960000  36.5583000  65.4333000   6.8770000  35.7053000  65.1413000
   6.6500000  36.7733000  66.1893000  17.8950000  29.7823000  61.1383000
  17.0850000  29.4363000  61.5133000  18.5830000  29.4723000  61.7263000
  19.8240000  28.8593000  62.7603000  20.3770000  29.2793000  63.4193000
  20.0610000  27.9333000  62.8023000  15.0490000  32.0973000  55.1243000
  15.9100000  32.4223000  55.3843000  15.2340000  31.3103000  54.6123000
   7.0650000  40.1793000  67.4023000   6.3720000  39.7643000  66.8893000
   7.8130000  40.2213000  66.8063000  23.2020000  30.9693000  62.2683000
  22.6220000  31.6283000  61.8863000  22.9350000  30.1473000  61.8573000
  21.6520000  30.3703000  64.4703000  22.1520000  30.4823000  63.6613000
  22.2960000  30.0663000  65.1103000   8.9790000  40.1113000  65.2793000
   8.9560000  40.2093000  64.3273000   9.2890000  40.9573000  65.6013000
  11.6380000  42.1683000  69.3943000  12.5920000  42.1373000  69.3273000
  11.4390000  41.7073000  70.2093000  21.9840000  33.1293000  61.3243000
  21.0970000  33.4143000  61.1063000  22.4000000  32.9693000  60.4763000
  25.3360000  33.1543000  65.0393000  26.1120000  33.6443000  65.3113000
  24.6110000  33.5803000  65.4963000  27.7730000  33.8673000  66.0963000
  28.3670000  33.6263000  65.3863000  27.8460000  33.1483000  66.7243000
   9.9930000  47.7103000  66.4113000   9.8580000  46.9503000  65.8453000
   9.5760000  48.4343000  65.9443000  25.7690000  34.4343000  62.3643000
  25.5130000  34.0333000  63.1943000  25.1440000  35.1483000  62.2393000
  30.0800000  37.1733000  64.8713000  29.5200000  37.2433000  65.6443000
  29.4740000  36.9983000  64.1513000  13.1500000  48.6073000  66.6233000
  13.0330000  49.5523000  66.5203000  12.3290000  48.3043000  67.0113000
  16.0010000  29.3363000  58.4123000  15.9890000  30.2803000  58.5693000
  16.8940000  29.1533000  58.1183000  15.9300000  48.0133000  66.4993000
  14.9800000  48.0133000  66.3863000  16.2340000  47.2663000  65.9833000
  19.8170000  25.9303000  62.6673000  19.0500000  25.3763000  62.8133000
  20.2280000  26.0033000  63.5283000  31.6660000  53.8493000  67.5643000
  32.3040000  53.7303000  66.8603000  31.5480000  54.7973000  67.6233000
  28.4750000  53.8023000  67.5003000  28.1360000  53.6863000  66.6123000
  29.3440000  53.4013000  67.4803000  24.3330000  55.6553000  63.4903000
  23.7700000  55.5643000  62.7213000  24.2190000  54.8353000  63.9703000
  21.8800000  57.1513000  66.3283000  22.6720000  56.8103000  65.9133000
  22.1190000  57.2603000  67.2483000  29.9130000  59.3223000  58.8013000
  29.2620000  59.9083000  58.4143000  30.7080000  59.8533000  58.8613000
  23.8390000  56.4113000  59.2003000  24.6120000  55.8643000  59.0613000
  24.1910000  57.2763000  59.4113000  26.6030000  55.1173000  68.9973000
  27.1990000  54.8923000  68.2823000  26.6600000  54.3753000  69.5993000
  31.2200000  51.5743000  64.6393000  32.0060000  51.1563000  64.2883000
  31.4840000  52.4793000  64.8073000  31.3910000  57.0123000  59.3383000
  30.7550000  57.0853000  60.0503000  31.0610000  57.6013000  58.6603000
  36.6210000  51.5123000  65.5423000  37.3530000  50.9423000  65.7763000
  35.8650000  51.1243000  65.9833000  25.8950000  54.4733000  59.0343000
  25.7790000  53.7983000  59.7023000  26.0050000  53.9873000  58.2173000
  28.2380000  53.9343000  62.7393000  27.8740000  53.4083000  63.4503000
  29.0950000  53.5443000  62.5653000  34.1430000  45.2243000  70.0023000
  33.8120000  46.0933000  69.7783000  33.5480000  44.9083000  70.6813000
  24.0880000  53.8773000  65.4353000  23.1630000  53.7443000  65.6433000
  24.3360000  54.6563000  65.9323000  34.0360000  49.9433000  67.0813000
  33.1280000  49.8753000  66.7873000  33.9850000  50.4213000  67.9093000
  27.8580000  51.4193000  58.7193000  27.7380000  51.8653000  59.5583000
  27.1630000  51.7683000  58.1613000  21.4480000  53.5203000  66.2693000
  21.5780000  53.7733000  67.1833000  20.7680000  54.1133000  65.9503000
  25.6180000  64.1903000  62.3693000  25.5410000  65.1403000  62.4473000
  25.0150000  63.8443000  63.0263000  35.9020000  48.1453000  68.8593000
  35.2600000  48.4383000  68.2133000  35.3980000  48.0303000  69.6643000
  33.5560000  51.8913000  59.5483000  34.4680000  52.1243000  59.3723000
  33.0470000  52.4753000  58.9853000  28.1930000  51.2513000  70.5573000
  29.0400000  51.6753000  70.7003000  28.1330000  50.5943000  71.2513000
  32.1630000  56.8743000  66.9393000  31.5340000  57.0393000  66.2363000
  31.7760000  57.2883000  67.7103000  36.0420000  57.8093000  64.2933000
  35.3570000  58.1893000  63.7433000  36.1270000  58.4193000  65.0273000
  31.3430000  48.9123000  72.2153000  31.0990000  49.6663000  71.6793000
  31.6190000  49.2903000  73.0503000  30.9000000  48.0673000  67.7973000
  30.0380000  48.3653000  68.0883000  30.9260000  48.2843000  66.8653000
  27.7160000  56.6113000  64.2043000  28.1800000  56.8903000  63.4143000
  27.4520000  55.7103000  64.0213000  24.6080000  56.1593000  67.1423000
  25.1790000  56.5873000  66.5043000  25.1990000  55.8773000  67.8403000
  26.6530000  52.7343000  61.0133000  27.3550000  53.1863000  61.4803000
  26.3210000  52.0923000  61.6413000  20.3950000  50.9923000  66.3153000
  19.6050000  51.2483000  65.8393000  20.8870000  51.8073000  66.4203000
  22.3470000  51.3573000  63.2733000  21.5500000  51.4683000  63.7913000
  22.1190000  51.6953000  62.4073000  18.6790000  51.2453000  68.7463000
  18.9300000  52.1303000  69.0123000  19.2150000  51.0663000  67.9743000
  27.8920000  59.5483000  61.0893000  27.7570000  60.3933000  61.5183000
  28.4330000  59.7503000  60.3263000  21.3450000  57.0653000  61.6623000
  21.8580000  57.8603000  61.8123000  21.9970000  56.3683000  61.5953000
  23.1550000  60.1823000  63.7443000  23.3310000  61.1043000  63.5563000
  23.9500000  59.8683000  64.1743000  27.2960000  47.0433000  75.3433000
  28.0370000  47.6433000  75.2633000  27.5280000  46.3013000  74.7843000
  22.4400000  52.2283000  73.6203000  22.3250000  51.3273000  73.9213000
  21.5840000  52.4753000  73.2693000  31.2410000  43.0713000  69.6193000
  30.8980000  43.9613000  69.5433000  31.6090000  42.8813000  68.7563000
  19.3100000  55.3943000  62.4383000  20.1480000  55.8043000  62.2213000
  19.4880000  54.4543000  62.4083000  31.2070000  53.0623000  58.1263000
  30.6910000  53.8323000  58.3653000  30.9340000  52.3883000  58.7493000
  28.7910000  47.9073000  63.1853000  27.9350000  47.5173000  63.0053000
  29.2040000  47.9863000  62.3253000  30.3210000  45.4413000  67.5843000
  29.8180000  45.4043000  66.7713000  30.6140000  46.3513000  67.6443000
  26.5650000  45.5253000  66.5903000  27.4310000  45.3293000  66.2313000
  26.6330000  45.2963000  67.5173000  36.1800000  55.8153000  60.0623000
  35.4030000  55.4763000  59.6173000  36.8590000  55.8203000  59.3873000
  30.9950000  50.9343000  59.9523000  30.6900000  51.2493000  60.8033000
  31.9480000  51.0133000  59.9953000  29.4400000  57.0933000  61.6013000
  28.9120000  56.3593000  61.2893000  28.9390000  57.8713000  61.3553000
  34.4190000  55.2883000  66.7183000  33.7610000  55.9783000  66.8063000
  35.2230000  55.6783000  67.0623000  24.1720000  47.7553000  63.9623000
  24.7460000  47.5333000  63.2293000  24.7590000  47.8243000  64.7153000
  33.2300000  53.6433000  64.7693000  33.7430000  54.2763000  65.2713000
  33.8800000  53.0433000  64.4033000  24.4990000  49.7863000  57.9823000
  23.6620000  50.1233000  58.3033000  24.3590000  49.6513000  57.0443000
  26.4740000  44.6303000  62.6903000  25.8200000  44.3143000  62.0653000
  26.4320000  44.0073000  63.4163000  30.4920000  63.6213000  57.5253000
  29.8180000  63.9243000  58.1333000  30.8780000  64.4243000  57.1753000
  29.7080000  51.1183000  67.0143000  28.7900000  51.3393000  66.8573000
  30.1240000  51.1923000  66.1563000  30.4910000  52.5173000  62.1453000
  31.2380000  53.0293000  61.8353000  30.7600000  52.1953000  63.0053000
  28.7640000  55.0133000  59.1273000  27.8550000  54.7293000  59.2253000
  28.7930000  55.4333000  58.2683000  33.9960000  58.6233000  62.8963000
  33.5420000  57.7833000  62.9533000  33.3650000  59.2603000  63.2343000
  32.9390000  49.5533000  64.1273000  32.2010000  49.0403000  64.4583000
  33.1920000  49.1133000  63.3153000  32.4390000  60.4613000  63.8313000
  32.7310000  61.0223000  63.1133000  32.9490000  60.7543000  64.5873000
  33.0400000  42.3303000  64.7213000  33.3460000  41.4703000  64.4333000
  33.7660000  42.9223000  64.5213000  19.3330000  52.7333000  63.1093000
  19.1350000  52.1403000  62.3843000  18.7770000  52.4293000  63.8263000
  27.3120000  52.6263000  65.2283000  27.3670000  51.6733000  65.1533000
  26.5010000  52.7823000  65.7123000  28.4610000  56.5543000  56.4663000
  28.0230000  55.8373000  56.0073000  29.2030000  56.7813000  55.9053000
  25.2520000  51.2433000  62.9873000  24.4380000  51.5433000  63.3943000
  25.7480000  50.8493000  63.7053000  27.4020000  61.2393000  64.9213000
  27.3600000  61.4653000  63.9923000  28.3190000  61.0053000  65.0693000
  36.5790000  54.8293000  62.5243000  36.4410000  55.0203000  61.5963000
  36.2220000  55.5913000  62.9813000  24.7430000  48.8153000  68.6033000
  25.3830000  48.6743000  67.9063000  23.9110000  48.5293000  68.2273000
  25.5190000  58.1153000  64.7173000  26.3130000  57.6203000  64.5153000
  24.8080000  57.5873000  64.3543000  21.8270000  52.2603000  60.7933000
  20.8970000  52.1983000  61.0103000  21.9230000  51.7373000  59.9973000
  21.7460000  48.7853000  63.3813000  22.0070000  49.7003000  63.2723000
  22.5680000  48.3183000  63.5303000  23.2180000  50.1993000  70.5513000
  23.8910000  49.9913000  69.9023000  22.3910000  50.0013000  70.1113000
  29.1210000  46.8253000  72.5673000  28.4740000  47.5243000  72.4743000
  29.8910000  47.2593000  72.9353000  29.2970000  54.6633000  70.6273000
  30.2270000  54.8143000  70.4543000  28.8760000  54.7523000  69.7723000
  28.0960000  58.6883000  68.3973000  27.9570000  58.3203000  69.2693000
  27.3080000  59.2033000  68.2253000  28.6910000  63.7893000  59.7393000
  28.8660000  63.3183000  60.5543000  28.0040000  64.4163000  59.9673000
  29.6470000  58.0663000  65.7863000  29.3120000  58.0273000  66.6813000
  29.1470000  57.4013000  65.3133000  23.6210000  53.4733000  71.3113000
  23.4830000  52.7413000  71.9123000  24.5320000  53.3843000  71.0293000
  32.5830000  55.4123000  56.0593000  31.9660000  54.6873000  55.9633000
  32.1140000  56.1733000  55.7163000  26.2490000  53.1853000  70.7993000
  26.9590000  52.5453000  70.7583000  26.2060000  53.4373000  71.7223000
  24.9620000  50.1723000  72.6193000  24.4260000  49.7213000  73.2713000
  24.3740000  50.3063000  71.8763000  15.8930000  54.4183000  65.2763000
  16.5800000  54.1043000  64.6883000  15.7370000  55.3223000  65.0023000
  20.6960000  49.3073000  69.7043000  20.6120000  48.7003000  68.9693000
  19.8740000  49.7983000  69.7053000  27.5590000  61.9833000  62.4283000
  26.7760000  62.5253000  62.5223000  28.2580000  62.5013000  62.8273000
  30.8690000  47.7933000  65.0713000  31.3650000  47.0403000  64.7513000
  30.0970000  47.8293000  64.5053000  38.7220000  53.4973000  66.7133000
  38.7100000  54.3793000  66.3423000  37.8530000  53.1443000  66.5183000
  31.9520000  56.5503000  62.6453000  31.0170000  56.6703000  62.4753000
  32.1290000  55.6473000  62.3813000  27.4520000  49.9343000  64.7983000
  27.0820000  49.3823000  65.4863000  27.9480000  49.3303000  64.2463000
  35.3390000  52.3923000  63.1803000  35.8050000  53.2243000  63.1063000
  35.7900000  51.9263000  63.8853000  33.4060000  58.7363000  60.1793000
  33.6820000  58.6223000  61.0883000  32.5370000  58.3383000  60.1403000
  33.3100000  44.7603000  67.2193000  32.3970000  44.9903000  67.3873000
  33.7400000  44.8443000  68.0713000  33.0810000  52.9493000  69.7193000
  32.4280000  53.1963000  69.0643000  33.4590000  52.1353000  69.3853000
  30.0420000  62.9853000  63.8223000  30.2240000  62.1673000  64.2853000
  30.8650000  63.2013000  63.3843000  30.3760000  61.9113000  61.0833000
  30.9050000  61.4013000  60.4703000  30.6390000  61.5963000  61.9483000
  23.7320000  62.9633000  63.8433000  23.0630000  63.4483000  63.3603000
  23.5930000  63.2103000  64.7583000  15.4690000  52.4983000  67.5473000
  15.5080000  51.9653000  68.3413000  14.9640000  51.9723000  66.9283000
  22.8490000  47.3453000  71.0443000  22.9130000  48.2063000  70.6313000
  22.7850000  46.7323000  70.3113000  22.3240000  49.4173000  74.6913000
  22.9510000  49.0353000  75.3053000  21.4670000  49.1993000  75.0573000
  19.1000000  51.2253000  60.6233000  19.3960000  50.3163000  60.5693000
  18.1990000  51.2043000  60.3013000  22.6300000  49.3003000  66.6063000
  21.9080000  49.9143000  66.4663000  23.4190000  49.8363000  66.5273000
  25.4320000  46.6363000  72.8803000  25.9560000  46.8823000  73.6423000
  25.2140000  47.4683000  72.4603000  20.8290000  48.9063000  60.7473000
  20.5000000  48.0263000  60.5643000  21.1830000  48.8513000  61.6343000
  30.0770000  60.5423000  65.2563000  29.9300000  59.6133000  65.4373000
  30.9020000  60.5643000  64.7723000  23.9430000  49.1933000  61.1143000
  24.2830000  49.7223000  60.3923000  24.3910000  49.5323000  61.8903000
  26.6380000  47.5773000  70.5653000  26.2970000  46.7783000  70.9673000
  25.9320000  47.8773000  69.9923000  27.2890000  44.6623000  69.0173000
  28.1120000  44.1883000  68.8953000  27.5330000  45.4413000  69.5173000
  25.9300000  47.6913000  59.3143000  26.6510000  48.0693000  58.8103000
  25.3070000  48.4103000  59.4173000  30.0730000  48.3953000  60.2493000
  30.2900000  49.2783000  59.9483000  29.5930000  48.0043000  59.5203000
  24.8130000  51.3543000  66.8273000  24.6680000  51.6683000  67.7193000
  24.3360000  51.9733000  66.2743000  26.6730000  48.3443000  66.8753000
  26.6590000  47.4483000  66.5383000  27.3900000  48.3513000  67.5083000
  28.5250000  48.7783000  68.9203000  28.2670000  49.7003000  68.9183000
  27.9940000  48.3813000  69.6103000  33.4700000  61.8833000  61.6993000
  33.6440000  61.3183000  60.9463000  33.9630000  62.6833000  61.5173000
  19.2880000  53.8953000  69.7653000  18.7430000  54.6713000  69.8973000
  20.1660000  54.2423000  69.6073000  26.0760000  47.2263000  62.1433000
  26.1980000  46.2973000  62.3423000  25.7870000  47.2403000  61.2313000
  28.9460000  44.9113000  65.2803000  28.9680000  44.9753000  64.3253000
  29.3620000  44.0723000  65.4743000  39.3240000  54.6473000  63.3183000
  39.7670000  53.8973000  62.9203000  38.4470000  54.6383000  62.9353000
  34.4580000  61.2003000  58.7993000  35.1530000  61.8203000  59.0173000
  34.8000000  60.3493000  59.0743000  36.3570000  58.6503000  60.3273000
  36.8820000  58.9883000  59.6023000  36.2690000  57.7143000  60.1443000
  28.0410000  64.7173000  64.6873000  27.6010000  64.2253000  65.3803000
  28.7920000  64.1743000  64.4463000  20.5200000  60.9083000  64.6893000
  21.3460000  60.6083000  64.3093000  20.1690000  60.1393000  65.1383000
  25.4880000  60.2613000  66.7593000  24.8660000  59.5983000  66.4593000
  26.1590000  60.2873000  66.0763000  18.7210000  58.8273000  65.6483000
  17.8840000  58.3993000  65.4673000  18.6930000  59.0203000  66.5853000
  25.0490000  58.8113000  60.2353000  25.1980000  59.4953000  59.5823000
  25.8560000  58.7923000  60.7503000  27.7910000  49.4923000  73.1073000
  26.9210000  49.7853000  72.8353000  28.0260000  50.0763000  73.8283000
  38.8670000  56.1173000  65.7103000  39.7020000  56.5563000  65.8743000
  39.0030000  55.6413000  64.8913000  22.8050000  54.8383000  61.2413000
  22.5590000  53.9343000  61.4393000  22.9740000  54.8393000  60.2993000
  22.0740000  50.5713000  58.7403000  21.3810000  50.6453000  58.0843000
  21.8290000  49.8073000  59.2623000  30.7460000  42.1303000  66.1443000
  31.0260000  41.4623000  66.7703000  31.5310000  42.3233000  65.6313000
  28.5490000  61.3063000  57.7063000  27.9760000  61.9253000  57.2533000
  29.1220000  61.8563000  58.2403000  34.6170000  50.5523000  69.8913000
  35.5680000  50.6523000  69.9123000  34.4470000  49.7603000  70.4013000
  32.6380000  47.6373000  70.0773000  32.0430000  47.9183000  69.3813000
  32.3530000  48.1273000  70.8483000  31.7690000  61.5903000  58.8373000
  32.7020000  61.5243000  59.0403000  31.6810000  62.4253000  58.3783000
  34.3980000  60.9063000  55.7973000  34.3190000  60.5723000  56.6913000
  35.2190000  61.3983000  55.7973000  37.2450000  50.5643000  69.0513000
  36.7290000  49.7793000  68.8643000  38.1290000  50.2353000  69.2153000
  34.9060000  44.3083000  65.0103000  34.7080000  43.9993000  65.8953000
  35.5160000  45.0343000  65.1403000  18.0360000  51.8883000  65.4333000
  17.7160000  51.0343000  65.1413000  17.4890000  52.1033000  66.1893000
  21.8140000  54.6043000  69.1503000  22.0320000  55.5363000  69.1693000
  22.2260000  54.2453000  69.9363000  28.7340000  45.1113000  61.1383000
  27.9240000  44.7653000  61.5133000  29.4230000  44.8013000  61.7263000
  30.6630000  44.1893000  62.7603000  31.2160000  44.6083000  63.4193000
  30.9000000  43.2623000  62.8023000  17.9050000  55.5083000  67.4023000
  17.2110000  55.0933000  66.8893000  18.6520000  55.5503000  66.8063000
  34.0410000  46.2993000  62.2683000  33.4610000  46.9573000  61.8863000
  33.7750000  45.4763000  61.8573000  32.4920000  45.6993000  64.4703000
  32.9910000  45.8113000  63.6613000  33.1350000  45.3953000  65.1103000
  19.8180000  55.4403000  65.2793000  19.7950000  55.5393000  64.3273000
  20.1280000  56.2863000  65.6013000  22.4770000  57.4973000  69.3943000
  23.4310000  57.4663000  69.3273000  22.2780000  57.0363000  70.2093000
  23.0670000  56.0683000  71.9613000  23.8860000  56.5623000  71.9843000
  23.3410000  55.1513000  71.9333000  32.8240000  48.4593000  61.3243000
  31.9360000  48.7443000  61.1063000  33.2390000  48.2983000  60.4763000
  36.1750000  48.4833000  65.0393000  36.9510000  48.9733000  65.3113000
  35.4500000  48.9093000  65.4963000  38.6120000  49.1963000  66.0963000
  39.2070000  48.9563000  65.3863000  38.6850000  48.4773000  66.7243000
  20.8320000  63.0393000  66.4113000  20.6980000  62.2793000  65.8453000
  20.4150000  63.7633000  65.9443000  31.9680000  58.2233000  55.4183000
  32.6720000  58.4283000  56.0343000  31.2440000  58.7913000  55.6833000
  32.7980000  53.9743000  61.5393000  32.7410000  54.4313000  60.6993000
  33.3510000  53.2133000  61.3613000  36.6080000  49.7633000  62.3643000
  36.3520000  49.3633000  63.1943000  35.9840000  50.4773000  62.2393000
  40.9190000  52.5033000  64.8713000  40.3590000  52.5723000  65.6443000
  40.3140000  52.3273000  64.1513000  23.9890000  63.9363000  66.6233000
  23.8720000  64.8813000  66.5203000  23.1680000  63.6343000  67.0113000
  33.8770000  58.6613000  57.4683000  34.7110000  58.2293000  57.2863000
  33.7150000  58.4903000  58.3963000  33.5310000  55.1653000  58.8343000
  33.4760000  54.9993000  57.8933000  32.9060000  55.8723000  58.9903000
  26.7700000  63.3423000  66.4993000  25.8190000  63.3423000  66.3863000
  27.0730000  62.5963000  65.9833000  30.6560000  41.2603000  62.6673000
  29.8890000  40.7053000  62.8133000  31.0670000  41.3323000  63.5283000
  37.0150000  67.9003000  56.8323000  37.2670000  67.3783000  56.0703000
  36.0770000  67.7363000  56.9343000  36.7340000  69.8033000  59.0343000
  36.6180000  69.1273000  59.7023000  36.8450000  69.3163000  58.2173000
  38.7180000  64.2933000  57.7353000  38.8860000  65.1613000  58.1023000
  38.5280000  64.4553000  56.8113000  38.6970000  66.7483000  58.7193000
  38.5770000  67.1943000  59.5583000  38.0020000  67.0973000  58.1613000
  35.3380000  65.1153000  57.9823000  34.5020000  65.4533000  58.3033000
  35.1980000  64.9803000  57.0443000  37.3130000  59.9593000  62.6903000
  36.6600000  59.6443000  62.0653000  37.2710000  59.3363000  63.4163000
  38.4240000  70.2413000  54.6053000  37.5170000  70.0103000  54.8043000
  38.9220000  69.4443000  54.7923000  30.1720000  68.0623000  63.1093000
  29.9750000  67.4693000  62.3843000  29.6170000  67.7583000  63.8263000
  39.3010000  71.8833000  56.4663000  38.8630000  71.1663000  56.0073000
  40.0420000  72.1103000  55.9053000  32.6670000  67.5893000  60.7933000
  31.7360000  67.5273000  61.0103000  32.7620000  67.0663000  59.9973000
  32.5850000  64.1143000  63.3813000  32.8460000  65.0293000  63.2723000
  33.4070000  63.6473000  63.5303000  43.4220000  70.7413000  56.0593000
  42.8050000  70.0163000  55.9633000  42.9540000  71.5023000  55.7163000
  35.2120000  64.9603000  55.1823000  34.3350000  64.8393000  54.8183000
  35.6880000  64.1683000  54.9293000  29.9400000  66.5543000  60.6233000
  30.2350000  65.6453000  60.5693000  29.0390000  66.5333000  60.3013000
  31.6690000  64.2353000  60.7473000  31.3400000  63.3553000  60.5643000
  32.0220000  64.1803000  61.6343000  34.7830000  64.5233000  61.1143000
  35.1220000  65.0513000  60.3923000  35.2300000  64.8613000  61.8903000
  36.7690000  63.0203000  59.3143000  37.4900000  63.3983000  58.8103000
  36.1460000  63.7393000  59.4173000  40.9130000  63.7253000  60.2493000
  41.1290000  64.6073000  59.9483000  40.4320000  63.3333000  59.5203000
  36.9160000  62.5553000  62.1433000  37.0370000  61.6273000  62.3423000
  36.6260000  62.5693000  61.2313000  32.9140000  65.9003000  58.7403000
  32.2210000  65.9743000  58.0843000  32.6690000  65.1363000  59.2623000
  39.7730000  67.9713000  55.0483000  40.7190000  67.8423000  55.1173000
  39.3950000  67.2333000  55.5253000  37.9570000  65.8963000  54.9833000
  37.0510000  65.6003000  55.0593000  38.2350000  65.5993000  54.1173000
  39.5740000  60.4403000  61.1383000  38.7640000  60.0953000  61.5133000
  40.2620000  60.1313000  61.7263000  36.7270000  62.7553000  55.1243000
  37.5890000  63.0803000  55.3843000  36.9120000  61.9683000  54.6123000
  37.6800000  59.9953000  58.4123000  37.6680000  60.9393000  58.5693000
  38.5730000  59.8123000  58.1183000  41.4950000  56.5893000  62.6673000
  40.7290000  56.0353000  62.8133000  41.9060000  56.6613000  63.5283000
  20.8260000  15.5263000  54.2883000  21.4640000  15.4073000  53.5853000
  20.7080000  16.4743000  54.3473000  17.6350000  15.4793000  54.2243000
  17.2970000  15.3633000  53.3363000  18.5040000  15.0783000  54.2053000
  13.4940000  17.3323000  50.2143000  12.9300000  17.2413000  49.4463000
  13.3790000  16.5123000  50.6943000  11.0400000  18.8283000  53.0533000
  11.8330000  18.4873000  52.6373000  11.2800000  18.9373000  53.9733000
  19.0740000  21.0003000  45.5263000  18.4230000  21.5853000  45.1393000
  19.8680000  21.5303000  45.5853000  12.9990000  18.0883000  45.9243000
  13.7730000  17.5413000  45.7863000  13.3520000  18.9533000  46.1363000
  14.8380000  19.4163000  59.1313000  14.5470000  20.3213000  59.0163000
  15.4740000  19.4583000  59.8453000  15.7640000  16.7943000  55.7213000
  16.3600000  16.5693000  55.0073000  15.8210000  16.0523000  56.3243000
  15.3360000  14.2483000  43.5563000  15.5890000  13.7263000  42.7943000
  14.3990000  14.0843000  43.6593000  20.3800000  13.2513000  51.3643000
  21.1670000  12.8333000  51.0133000  20.6440000  14.1563000  51.5323000
  20.5510000  18.6893000  46.0623000  19.9160000  18.7623000  46.7753000
  20.2210000  19.2783000  45.3843000  25.7810000  13.1893000  52.2673000
  26.5140000  12.6193000  52.5013000  25.0250000  12.8013000  52.7083000
  15.0560000  16.1503000  45.7593000  14.9390000  15.4753000  46.4273000
  15.1660000  15.6643000  44.9423000  17.3990000  15.6123000  49.4633000
  17.0350000  15.0853000  50.1753000  18.2560000  15.2213000  49.2903000
  17.0390000  10.6403000  44.4593000  17.2070000  11.5093000  44.8263000
  16.8490000  10.8033000  43.5353000  19.7970000  19.1023000  56.1263000
  19.4970000  20.0053000  56.0183000  19.4520000  18.8353000  56.9783000
  13.2480000  15.5543000  52.1603000  12.3230000  15.4213000  52.3673000
  13.4970000  16.3333000  52.6573000  23.1970000  11.6203000  53.8063000
  22.2880000  11.5523000  53.5123000  23.1450000  12.0983000  54.6343000
  17.0180000  13.0963000  45.4443000  16.8980000  13.5423000  46.2833000
  16.3240000  13.4453000  44.8853000  10.6090000  15.1973000  52.9943000
  10.7380000  15.4503000  53.9083000   9.9290000  15.7903000  52.6743000
  14.7790000  25.8673000  49.0933000  14.7010000  26.8173000  49.1723000
  14.1750000  25.5213000  49.7513000  25.0630000   9.8223000  55.5833000
  24.4200000  10.1153000  54.9373000  24.5580000   9.7073000  56.3893000
  22.7170000  13.5683000  46.2723000  23.6290000  13.8013000  46.0973000
  22.2080000  14.1523000  45.7103000  21.0010000  17.9913000  59.9083000
  21.4090000  17.5493000  59.1643000  20.2790000  17.4163000  60.1623000
  21.3240000  18.5513000  53.6633000  20.6950000  18.7163000  52.9613000
  20.9360000  18.9653000  54.4353000  25.2030000  19.4863000  51.0183000
  24.5180000  19.8663000  50.4683000  25.2870000  20.0963000  51.7513000
  22.4580000  17.1323000  57.6173000  22.6700000  17.7763000  56.9413000
  22.4110000  16.2993000  57.1503000  20.0600000   9.7443000  54.5213000
  19.1990000  10.0423000  54.8133000  20.0870000   9.9613000  53.5893000
  16.8770000  18.2883000  50.9283000  17.3400000  18.5673000  50.1393000
  16.6120000  17.3873000  50.7463000  13.7690000  17.8363000  53.8663000
  14.3390000  18.2643000  53.2283000  14.3600000  17.5543000  54.5653000
  15.8140000  14.4113000  47.7373000  16.5160000  14.8633000  48.2053000
  15.4820000  13.7693000  48.3653000   9.5560000  12.6693000  53.0393000
   8.7660000  12.9253000  52.5633000  10.0470000  13.4843000  53.1443000
  23.5720000  20.0103000  55.7903000  24.3940000  19.6083000  55.5083000
  23.5690000  19.9063000  56.7413000  11.5080000  13.0343000  49.9973000
  10.7110000  13.1453000  50.5163000  11.2800000  13.3723000  49.1323000
  17.3380000  19.5583000  57.9463000  17.4030000  20.0203000  58.7823000
  16.6290000  18.9283000  58.0743000  31.6630000  16.3543000  52.1383000
  30.9090000  15.7843000  51.9833000  31.7980000  16.3203000  53.0853000
  17.0530000  21.2253000  47.8143000  16.9170000  22.0703000  48.2423000
  17.5940000  21.4273000  47.0503000  10.5060000  18.7423000  48.3863000
  11.0180000  19.5373000  48.5373000  11.1580000  18.0453000  48.3203000
  12.3150000  21.8593000  50.4693000  12.4920000  22.7813000  50.2813000
  13.1110000  21.5453000  50.8983000  18.6800000  21.8473000  61.9443000
  18.2360000  21.0613000  61.6263000  19.3410000  22.0353000  61.2783000
  13.4380000  23.3773000  56.4703000  13.9890000  23.2483000  55.6973000
  12.6000000  23.6763000  56.1193000  20.7780000  22.1273000  59.9723000
  20.7600000  22.9483000  59.4803000  21.7000000  22.0033000  60.1973000
   8.4710000  17.0713000  49.1623000   9.3080000  17.4813000  48.9463000
   8.6490000  16.1313000  49.1323000  20.3670000  14.7393000  44.8513000
  19.8520000  15.5093000  45.0903000  20.0950000  14.0653000  45.4743000
  17.9520000   9.5843000  49.9093000  17.0960000   9.1943000  49.7303000
  18.3650000   9.6633000  49.0493000  19.4820000   7.1183000  54.3083000
  18.9780000   7.0813000  53.4953000  19.7750000   8.0283000  54.3683000
  25.3410000  17.4923000  46.7863000  24.5640000  17.1533000  46.3423000
  26.0200000  17.4973000  46.1123000  20.1560000  12.6113000  46.6773000
  19.8510000  12.9263000  47.5283000  21.1090000  12.6903000  46.7193000
  18.6000000  18.7703000  48.3263000  18.0730000  18.0363000  48.0133000
  18.0990000  19.5483000  48.0803000  23.5800000  16.9653000  53.4433000
  22.9220000  17.6553000  53.5313000  24.3840000  17.3553000  53.7863000
  13.3320000   9.4323000  50.6873000  13.9070000   9.2103000  49.9543000
  13.9190000   9.5013000  51.4403000  22.3900000  15.3203000  51.4933000
  22.9030000  15.9533000  51.9953000  23.0400000  14.7203000  51.1273000
  13.6590000  11.4633000  44.7063000  12.8230000  11.8003000  45.0273000
  13.5200000  11.3283000  43.7693000  16.7460000  16.5893000  41.3293000
  15.8380000  16.3573000  41.5293000  17.2430000  15.7923000  41.5173000
  19.6520000  25.2983000  44.2493000  18.9790000  25.6013000  44.8583000
  20.0390000  26.1013000  43.9003000  18.8680000  12.7953000  53.7393000
  17.9510000  13.0163000  53.5813000  19.2840000  12.8693000  52.8803000
  19.6520000  14.1943000  48.8693000  20.3990000  14.7063000  48.5603000
  19.9210000  13.8723000  49.7303000  17.9250000  16.6903000  45.8523000
  17.0160000  16.4063000  45.9493000  17.9540000  17.1103000  44.9923000
  23.1560000  20.3003000  49.6213000  22.7030000  19.4603000  49.6783000
  22.5260000  20.9373000  49.9583000  22.1000000  11.2303000  50.8513000
  21.3620000  10.7173000  51.1823000  22.3520000  10.7903000  50.0393000
  21.6000000  22.1383000  50.5563000  21.8920000  22.6993000  49.8373000
  22.1100000  22.4313000  51.3113000  22.2010000   4.0073000  51.4453000
  22.5070000   3.1473000  51.1583000  22.9260000   4.5993000  51.2453000
   8.4930000  14.4103000  49.8333000   8.2960000  13.8173000  49.1093000
   7.9380000  14.1063000  50.5513000  16.4730000  14.3033000  51.9533000
  16.5280000  13.3503000  51.8773000  15.6620000  14.4593000  52.4373000
  17.6220000  18.2313000  43.1913000  17.1840000  17.5143000  42.7313000
  18.3630000  18.4583000  42.6293000  14.4120000  12.9203000  49.7123000
  13.5990000  13.2203000  50.1183000  14.9080000  12.5263000  50.4293000
  16.5630000  22.9163000  51.6453000  16.5210000  23.1423000  50.7163000
  17.4790000  22.6823000  51.7943000  25.7390000  16.5063000  49.2483000
  25.6010000  16.6973000  48.3203000  25.3830000  17.2683000  49.7053000
  25.7660000  18.5743000  54.2593000  26.2000000  18.4823000  55.1083000
  26.4800000  18.5503000  53.6213000  14.6800000  19.7923000  51.4423000
  15.4740000  19.2973000  51.2403000  13.9690000  19.2643000  51.0783000
  19.4990000  22.1743000  55.7933000  19.5530000  22.7433000  56.5613000
  18.6310000  22.3443000  55.4283000  10.9880000  13.9373000  47.5183000
  10.0580000  13.8753000  47.7353000  11.0840000  13.4143000  46.7213000
  10.9070000  10.4623000  50.1053000  11.1670000  11.3773000  49.9963000
  11.7280000   9.9953000  50.2553000  26.6280000  18.6163000  56.7933000
  26.8220000  19.5213000  57.0393000  26.5280000  18.1573000  57.6273000
  18.4580000  16.3403000  57.3513000  19.3870000  16.4913000  57.1783000
  18.0370000  16.4293000  56.4963000  17.2570000  20.3653000  55.1213000
  17.1180000  19.9973000  55.9943000  16.4680000  20.8803000  54.9503000
  17.8520000  25.4663000  46.4643000  18.0270000  24.9953000  47.2783000
  17.1650000  26.0933000  46.6923000  18.8070000  19.7433000  52.5103000
  18.4720000  19.7043000  53.4063000  18.3080000  19.0783000  52.0373000
  21.7430000  17.0893000  42.7843000  21.1260000  16.3643000  42.6873000
  21.2750000  17.8503000  42.4413000  23.3990000  21.7993000  60.4443000
  23.3400000  21.1153000  59.7783000  23.8010000  22.5413000  59.9933000
  12.4180000  28.6153000  53.2383000  12.6570000  29.2473000  53.9163000
  11.5750000  28.2643000  53.5243000  13.5330000  11.3083000  41.9063000
  12.6560000  11.1873000  41.5423000  14.0090000  10.5163000  41.6543000
  23.4000000  19.7633000  58.6763000  22.5130000  19.4263000  58.7993000
  23.9700000  19.0313000  58.9133000   5.0530000  16.0953000  52.0003000
   5.7400000  15.7823000  51.4123000   4.8980000  16.9993000  51.7273000
  16.9310000  24.4233000  55.6423000  16.8580000  25.2293000  56.1543000
  16.4880000  24.6223000  54.8173000  16.7190000  23.6603000  49.1523000
  15.9360000  24.2023000  49.2463000  17.4190000  24.1783000  49.5523000
  20.0290000   9.4703000  51.7963000  20.5260000   8.7173000  51.4763000
  19.2580000   9.5063000  51.2303000  27.8820000  15.1743000  53.4383000
  27.8710000  16.0563000  53.0673000  27.0140000  14.8213000  53.2433000
  19.3900000  24.3223000  57.7983000  20.1030000  24.9573000  57.7253000
  18.8990000  24.4183000  56.9823000  21.1120000  18.2273000  49.3703000
  20.1780000  18.3473000  49.2003000  21.2900000  17.3243000  49.1063000
  16.6130000  11.6113000  51.5233000  16.2420000  11.0593000  52.2113000
  17.1090000  11.0073000  50.9703000  24.4990000  14.0693000  49.9053000
  24.9650000  14.9013000  49.8313000  24.9500000  13.6033000  50.6093000
  14.4420000  22.0713000  58.6183000  15.1430000  22.7053000  58.7713000
  13.9710000  22.4133000  57.8583000  22.5670000  20.4133000  46.9033000
  22.8430000  20.2993000  47.8133000  21.6970000  20.0153000  46.8643000
  22.4710000   6.4373000  53.9443000  21.5570000   6.6673000  54.1123000
  22.9000000   6.5213000  54.7953000  22.2420000  14.6263000  56.4443000
  21.5890000  14.8733000  55.7893000  22.6200000  13.8123000  56.1103000
  19.2020000  24.6623000  50.5463000  19.3850000  23.8443000  51.0093000
  20.0260000  24.8783000  50.1093000  19.5370000  23.5883000  47.8083000
  20.0650000  23.0783000  47.1953000  19.7990000  23.2733000  48.6733000
  10.0380000  21.6053000  55.5513000  10.6240000  20.8593000  55.6843000
   9.8410000  21.9153000  56.4353000  12.8920000  24.6403000  50.5683000
  12.2230000  25.1253000  50.0843000  12.7530000  24.8873000  51.4823000
  17.0330000  26.6743000  57.1663000  17.5850000  26.8383000  57.9313000
  17.3730000  27.2653000  56.4943000  21.8840000  21.5003000  63.0213000
  22.4280000  22.1133000  62.5263000  21.3030000  22.0583000  63.5383000
   8.2610000  12.9023000  47.3473000   8.5560000  11.9933000  47.2943000
   7.3600000  12.8813000  47.0253000  20.1700000  24.6233000  54.1523000
  20.0450000  23.8223000  53.6433000  20.8270000  25.1173000  53.6643000
  11.7900000  10.9773000  53.3303000  11.0690000  11.5913000  53.1913000
  12.5800000  11.5133000  53.2523000  22.2330000  22.4233000  55.7803000
  21.2860000  22.3043000  55.7083000  22.5810000  21.5363000  55.8633000
  19.2380000  22.2193000  51.9813000  19.0900000  21.2903000  52.1623000
  20.0630000  22.2413000  51.4963000  13.1040000  10.8713000  47.8393000
  13.4440000  11.3993000  47.1173000  13.5510000  11.2093000  48.6153000
  22.8410000  23.0423000  53.0673000  23.7660000  22.8363000  52.9303000
  22.6730000  22.7933000  53.9763000  15.0910000   9.3683000  46.0383000
  15.8120000   9.7463000  45.5353000  14.4670000  10.0873000  46.1423000
  19.2340000  10.0723000  46.9743000  19.4500000  10.9553000  46.6733000
  18.7530000   9.6813000  46.2453000  13.9740000  13.0313000  53.5513000
  13.8280000  13.3453000  54.4433000  13.4960000  13.6503000  52.9983000
  15.8330000  10.0213000  53.5993000  15.8200000   9.1253000  53.2623000
  16.5510000  10.0283000  54.2333000  22.6310000  23.5603000  48.4233000
  22.8040000  22.9953000  47.6713000  23.1240000  24.3603000  48.2413000
  15.2370000   8.9033000  48.8683000  15.3590000   7.9743000  49.0673000
  14.9470000   8.9173000  47.9563000  18.1060000   6.5883000  52.0053000
  18.1280000   6.6523000  51.0503000  18.5230000   5.7493000  52.1993000
  28.4850000  16.3243000  50.0423000  28.9280000  15.5753000  49.6443000
  27.6070000  16.3153000  49.6603000  23.6180000  22.8773000  45.5233000
  24.3130000  23.4973000  45.7423000  23.9600000  22.0263000  45.7983000
  25.5170000  20.3273000  47.0523000  26.0420000  20.6663000  46.3273000
  25.4300000  19.3913000  46.8683000  17.1790000  24.2403000  59.1813000
  17.4880000  23.9953000  60.0533000  17.9770000  24.4453000  58.6933000
  17.2010000  26.3943000  51.4113000  16.7620000  25.9023000  52.1053000
  17.9520000  25.8513000  51.1713000   9.6810000  22.5853000  51.4143000
  10.5060000  22.2863000  51.0343000   9.3300000  21.8163000  51.8633000
  14.6490000  21.9383000  53.4843000  14.0270000  21.2753000  53.1843000
  15.3190000  21.9643000  52.8013000   7.8810000  20.5043000  52.3733000
   7.0450000  20.0763000  52.1913000   7.8540000  20.6973000  53.3103000
  25.2070000  20.9603000  62.3573000  24.4160000  20.9423000  61.8173000
  24.9700000  21.4993000  63.1123000  25.3260000  17.8093000  59.6703000
  25.3760000  17.6443000  60.6123000  25.2180000  16.9423000  59.2803000
  14.2100000  20.4883000  46.9593000  14.3590000  21.1723000  46.3063000
  15.0170000  20.4693000  47.4743000  26.8280000  20.2293000  59.9143000
  26.5370000  20.5923000  60.7513000  26.2160000  19.5163000  59.7363000
  28.0280000  17.7943000  52.4353000  28.8630000  18.2333000  52.5983000
  28.1640000  17.3183000  51.6163000  25.0770000  15.3523000  58.3823000
  25.5520000  15.5453000  57.5743000  24.1540000  15.4083000  58.1373000
  11.9650000  16.5153000  47.9663000  11.7200000  15.6113000  48.1643000
  12.1350000  16.5163000  47.0243000  11.2350000  12.2483000  45.4643000
  10.5420000  12.3223000  44.8083000  10.9900000  11.4843000  45.9863000
  17.7100000  22.9833000  44.4313000  17.1370000  23.6023000  43.9783000
  18.2830000  23.5333000  44.9653000  23.7770000  12.2293000  56.6153000
  24.7290000  12.3293000  56.6373000  23.6080000  11.4373000  57.1253000
  20.9290000  23.2673000  45.5623000  21.8620000  23.2013000  45.7653000
  20.8420000  24.1023000  45.1033000  23.5580000  22.5833000  42.5223000
  23.4800000  22.2493000  43.4153000  24.3790000  23.0753000  42.5213000
  26.2560000  15.4493000  55.7303000  26.2240000  14.5113000  55.9163000
  26.8660000  15.5283000  54.9963000  18.0940000  14.3193000  41.7723000
  19.0400000  14.1903000  41.8413000  17.7160000  13.5813000  42.2493000
  26.4050000  12.2413000  55.7753000  25.8890000  11.4563000  55.5883000
  27.2890000  11.9123000  55.9403000  24.0670000   5.9853000  51.7353000
  23.8690000   5.6763000  52.6193000  24.6760000   6.7113000  51.8653000
  32.0740000  16.5113000  54.8703000  32.8040000  16.2503000  55.4313000
  31.4640000  15.7743000  54.9103000  30.1550000  14.6523000  55.4683000
  29.4290000  14.5173000  54.8593000  29.7400000  14.9603000  56.2733000
  16.2790000  12.2443000  41.7083000  15.3720000  11.9473000  41.7843000
  16.5560000  11.9473000  40.8413000   7.1960000  13.5653000  52.1583000
   6.8770000  12.7113000  51.8653000   6.6500000  13.7803000  52.9133000
  17.8950000   6.7883000  47.8623000  17.0850000   6.4423000  48.2383000
  18.5830000   6.4793000  48.4513000  19.8240000   5.8663000  49.4853000
  20.3770000   6.2853000  50.1443000  20.0610000   4.9393000  49.5273000
  15.0490000   9.1033000  41.8493000  15.9100000   9.4283000  42.1093000
  15.2340000   8.3163000  41.3363000   7.0650000  17.1853000  54.1273000
   6.3720000  16.7703000  53.6143000   7.8130000  17.2273000  53.5303000
  23.2020000   7.9763000  48.9923000  22.6220000   8.6343000  48.6103000
  22.9350000   7.1533000  48.5813000  21.6520000   7.3763000  51.1953000
  22.1520000   7.4883000  50.3863000  22.2960000   7.0723000  51.8353000
   8.9790000  17.1173000  52.0043000   8.9560000  17.2163000  51.0523000
   9.2890000  17.9633000  52.3253000  11.6380000  19.1743000  56.1183000
  12.5920000  19.1433000  56.0513000  11.4390000  18.7133000  56.9333000
  21.9840000  10.1363000  48.0483000  21.0970000  10.4213000  47.8303000
  22.4000000   9.9753000  47.2013000  25.3360000  10.1603000  51.7643000
  26.1120000  10.6503000  52.0363000  24.6110000  10.5863000  52.2213000
  27.7730000  10.8733000  52.8213000  28.3670000  10.6333000  52.1103000
  27.8460000  10.1543000  53.4483000   9.9930000  24.7163000  53.1353000
   9.8580000  23.9563000  52.5693000   9.5760000  25.4403000  52.6683000
  21.1290000  19.9003000  42.1433000  21.8320000  20.1053000  42.7593000
  20.4050000  20.4683000  42.4083000  21.9580000  15.6513000  48.2633000
  21.9020000  16.1083000  47.4243000  22.5110000  14.8903000  48.0853000
  25.7690000  11.4403000  49.0883000  25.5130000  11.0403000  49.9193000
  25.1440000  12.1543000  48.9633000  30.0800000  14.1803000  51.5953000
  29.5200000  14.2493000  52.3683000  29.4740000  14.0043000  50.8753000
  13.1500000  25.6133000  53.3473000  13.0330000  26.5583000  53.2453000
  12.3290000  25.3113000  53.7363000  23.0370000  20.3383000  44.1933000
  23.8720000  19.9063000  44.0103000  22.8760000  20.1673000  45.1203000
  22.6920000  16.8423000  45.5583000  22.6370000  16.6763000  44.6173000
  22.0660000  17.5493000  45.7153000  16.0010000   6.3423000  45.1373000
  15.9890000   7.2873000  45.2943000  16.8940000   6.1593000  44.8433000
  14.1750000  26.2663000  56.5633000  15.0780000  26.2993000  56.8793000
  13.9490000  25.3363000  56.5773000  15.9300000  25.0193000  53.2243000
  14.9800000  25.0193000  53.1103000  16.2340000  24.2733000  52.7073000
  24.3330000  32.6623000  50.2143000  23.7700000  32.5713000  49.4463000
  24.2190000  31.8423000  50.6943000  28.9570000  31.9623000  60.1833000
  28.9450000  31.5673000  59.3113000  29.1190000  31.2283000  60.7763000
  23.8390000  33.4183000  45.9243000  24.6120000  32.8713000  45.7863000
  24.1910000  34.2823000  46.1363000  25.6770000  34.7453000  59.1313000
  25.3860000  35.6503000  59.0163000  26.3130000  34.7873000  59.8453000
  26.6030000  32.1233000  55.7213000  27.1990000  31.8993000  55.0073000
  26.6600000  31.3813000  56.3243000  34.1430000  22.2303000  56.7263000
  33.8120000  23.1003000  56.5023000  33.5480000  21.9143000  57.4063000
  24.0880000  30.8833000  52.1603000  23.1630000  30.7503000  52.3673000
  24.3360000  31.6623000  52.6573000  34.0360000  26.9503000  53.8063000
  33.1280000  26.8813000  53.5123000  33.9850000  27.4273000  54.6343000
  21.4480000  30.5263000  52.9943000  21.5780000  30.7803000  53.9083000
  20.7680000  31.1193000  52.6743000  28.1100000  28.3693000  61.7493000
  27.3330000  28.9283000  61.7393000  28.7490000  28.8543000  62.2713000
  35.9020000  25.1513000  55.5833000  35.2600000  25.4453000  54.9373000
  35.3980000  25.0373000  56.3893000  26.3650000  31.1773000  61.3113000
  27.1060000  31.7163000  61.0343000  25.6580000  31.8043000  61.4683000
  31.8400000  33.3203000  59.9083000  32.2490000  32.8783000  59.1643000
  31.1180000  32.7453000  60.1623000  28.1930000  28.2573000  57.2823000
  29.0400000  28.6813000  57.4253000  28.1330000  27.6013000  57.9753000
  31.3430000  25.9183000  58.9403000  31.0990000  26.6723000  58.4033000
  31.6190000  26.2963000  59.7743000  33.2970000  32.4623000  57.6173000
  33.5090000  33.1053000  56.9413000  33.2500000  31.6283000  57.1503000
  30.9000000  25.0733000  54.5213000  30.0380000  25.3723000  54.8133000
  30.9260000  25.2903000  53.5893000  24.6080000  33.1653000  53.8663000
  25.1790000  33.5933000  53.2283000  25.1990000  32.8833000  54.5653000
  25.1010000  28.3313000  62.1123000  24.4710000  29.0133000  62.3463000
  24.9950000  28.2193000  61.1683000  20.3950000  27.9983000  53.0393000
  19.6050000  28.2543000  52.5633000  20.8870000  28.8133000  53.1443000
  22.3470000  28.3633000  49.9973000  21.5500000  28.4753000  50.5163000
  22.1190000  28.7013000  49.1323000  18.6790000  28.2513000  55.4713000
  18.9300000  29.1363000  55.7363000  19.2150000  28.0723000  54.6983000
  42.5020000  31.6833000  52.1383000  41.7490000  31.1133000  51.9833000
  42.6370000  31.6493000  53.0853000  21.3450000  34.0723000  48.3863000
  21.8580000  34.8663000  48.5373000  21.9970000  33.3743000  48.3203000
  27.2960000  24.0493000  62.0673000  28.0370000  24.6503000  61.9873000
  27.5280000  23.3073000  61.5093000  22.4400000  29.2353000  60.3453000
  22.3250000  28.3333000  60.6463000  21.5840000  29.4813000  59.9933000
  29.5190000  37.1763000  61.9443000  29.0750000  36.3903000  61.6263000
  30.1810000  37.3643000  61.2783000  31.6170000  37.4573000  59.9723000
  31.5990000  38.2783000  59.4803000  32.5390000  37.3323000  60.1973000
  28.0750000  34.9713000  60.8143000  28.6070000  34.2103000  60.5843000
  27.5460000  34.6783000  61.5573000  31.2410000  20.0773000  56.3433000
  30.8980000  20.9673000  56.2673000  31.6090000  19.8873000  55.4803000
  19.3100000  32.4003000  49.1623000  20.1480000  32.8103000  48.9463000
  19.4880000  31.4603000  49.1323000  30.3210000  22.4483000  54.3083000
  29.8180000  22.4113000  53.4953000  30.6140000  23.3573000  54.3683000
  26.5650000  22.5313000  53.3153000  27.4310000  22.3363000  52.9563000
  26.6330000  22.3023000  54.2423000  34.4190000  32.2953000  53.4433000
  33.7610000  32.9853000  53.5313000  35.2230000  32.6843000  53.7863000
  24.1720000  24.7623000  50.6873000  24.7460000  24.5393000  49.9543000
  24.7590000  24.8313000  51.4403000  26.4740000  21.6363000  49.4143000
  25.8200000  21.3213000  48.7903000  26.4320000  21.0133000  50.1403000
  29.7080000  28.1243000  53.7393000  28.7900000  28.3453000  53.5813000
  30.1240000  28.1993000  52.8803000  33.0400000  19.3363000  51.4453000
  33.3460000  18.4763000  51.1583000  33.7660000  19.9283000  51.2453000
  19.3330000  29.7403000  49.8333000  19.1350000  29.1463000  49.1093000
  18.7770000  29.4353000  50.5513000  30.8490000  28.7143000  58.5433000
  31.2040000  28.9413000  59.4033000  31.4960000  29.0463000  57.9213000
  24.7430000  25.8213000  55.3283000  25.3830000  25.6803000  54.6303000
  23.9110000  25.5353000  54.9523000  21.8270000  29.2663000  47.5183000
  20.8970000  29.2043000  47.7353000  21.9230000  28.7443000  46.7213000
  21.7460000  25.7913000  50.1053000  22.0070000  26.7063000  49.9963000
  22.5680000  25.3243000  50.2553000  23.2180000  27.2053000  57.2753000
  23.8910000  26.9973000  56.6263000  22.3910000  27.0073000  56.8363000
  37.4670000  33.9463000  56.7933000  37.6610000  34.8503000  57.0393000
  37.3670000  33.4863000  57.6273000  29.1210000  23.8313000  59.2923000
  28.4740000  24.5303000  59.1983000  29.8910000  24.2653000  59.6593000
  32.5290000  34.0963000  62.3673000  32.3770000  33.8673000  61.4503000
  32.5190000  35.0533000  62.3803000  29.2970000  31.6693000  57.3513000
  30.2270000  31.8213000  57.1783000  28.8760000  31.7583000  56.4963000
  23.6210000  30.4793000  58.0353000  23.4830000  29.7473000  58.6373000
  24.5320000  30.3903000  57.7543000  26.2490000  30.1913000  57.5243000
  26.9590000  29.5513000  57.4823000  26.2060000  30.4433000  58.4463000
  34.2380000  37.1283000  60.4443000  34.1790000  36.4443000  59.7783000
  34.6400000  37.8703000  59.9933000  24.9620000  27.1783000  59.3433000
  24.4260000  26.7273000  59.9963000  24.3740000  27.3133000  58.6003000
  34.2400000  35.0923000  58.6763000  33.3520000  34.7553000  58.7993000
  34.8100000  34.3603000  58.9133000  15.8930000  31.4253000  52.0003000
  16.5800000  31.1113000  51.4123000  15.7370000  32.3293000  51.7273000
  20.6960000  26.3143000  56.4293000  20.6120000  25.7063000  55.6943000
  19.8740000  26.8043000  56.4303000  30.8690000  24.7993000  51.7963000
  31.3650000  24.0463000  51.4763000  30.0970000  24.8353000  51.2303000
  38.7220000  30.5033000  53.4383000  38.7100000  31.3853000  53.0673000
  37.8530000  30.1503000  53.2433000  33.3100000  21.7663000  53.9443000
  32.3970000  21.9963000  54.1123000  33.7400000  21.8503000  54.7953000
  33.0810000  29.9553000  56.4443000  32.4280000  30.2023000  55.7893000
  33.4590000  29.1413000  56.1103000  29.1300000  30.6973000  62.9303000
  28.4540000  30.5963000  63.6003000  29.9530000  30.5413000  63.3943000
  15.4690000  29.5053000  54.2723000  15.5080000  28.9713000  55.0663000
  14.9640000  28.9783000  53.6533000  22.8490000  24.3513000  57.7683000
  22.9130000  25.2133000  57.3563000  22.7850000  23.7383000  57.0353000
  22.3240000  26.4233000  61.4153000  22.9510000  26.0413000  62.0293000
  21.4670000  26.2053000  61.7813000  32.7230000  36.8303000  63.0213000
  33.2670000  37.4433000  62.5263000  32.1420000  37.3883000  63.5383000
  19.1000000  28.2313000  47.3473000  19.3960000  27.3223000  47.2943000
  18.1990000  28.2103000  47.0253000  22.6300000  26.3073000  53.3303000
  21.9080000  26.9203000  53.1913000  23.4190000  26.8423000  53.2523000
  25.4320000  23.6423000  59.6043000  25.9560000  23.8883000  60.3673000
  25.2140000  24.4743000  59.1843000  20.8290000  25.9123000  47.4713000
  20.5000000  25.0323000  47.2893000  21.1830000  25.8573000  48.3593000
  23.9430000  26.2003000  47.8393000  24.2830000  26.7283000  47.1173000
  24.3910000  26.5383000  48.6153000  26.6380000  24.5833000  57.2893000
  26.2970000  23.7843000  57.6913000  25.9320000  24.8843000  56.7173000
  27.2890000  21.6683000  55.7423000  28.1120000  21.1943000  55.6203000
  27.5330000  22.4473000  56.2423000  24.8130000  28.3603000  53.5513000
  24.6680000  28.6743000  54.4433000  24.3360000  28.9793000  52.9983000
  26.6730000  25.3513000  53.5993000  26.6590000  24.4553000  53.2623000
  27.3900000  25.3583000  54.2333000  28.5250000  25.7843000  55.6443000
  28.2670000  26.7063000  55.6433000  27.9940000  25.3873000  56.3343000
  19.2880000  30.9013000  56.4903000  18.7430000  31.6773000  56.6223000
  20.1660000  31.2483000  56.3323000  28.9460000  21.9173000  52.0053000
  28.9680000  21.9813000  51.0503000  29.3620000  21.0783000  52.1993000
  20.0740000  30.0283000  59.3833000  19.3320000  30.1763000  59.9693000
  19.7540000  30.2893000  58.5193000  25.5610000  25.7453000  63.0773000
  25.6090000  26.6213000  62.6953000  26.1030000  25.2033000  62.5043000
  36.0460000  36.2893000  62.3573000  35.2560000  36.2723000  61.8173000
  35.8090000  36.8283000  63.1123000  36.1660000  33.1393000  59.6703000
  36.2160000  32.9743000  60.6123000  36.0570000  32.2713000  59.2803000
  33.4560000  29.1223000  60.9863000  34.3570000  28.9823000  60.6953000
  33.5310000  29.2873000  61.9263000  27.7910000  26.4983000  59.8323000
  26.9210000  26.7923000  59.5603000  28.0260000  27.0823000  60.5523000
  37.6680000  35.5583000  59.9143000  37.3760000  35.9213000  60.7513000
  37.0550000  34.8453000  59.7363000  35.9160000  30.6813000  58.3823000
  36.3920000  30.8743000  57.5743000  34.9930000  30.7373000  58.1373000
  22.8050000  31.8443000  47.9663000  22.5590000  30.9403000  48.1643000
  22.9740000  31.8463000  47.0243000  30.4940000  22.7163000  57.3483000
  31.0130000  23.4523000  57.0233000  30.1400000  23.0233000  58.1833000
  30.7460000  19.1363000  52.8683000  31.0260000  18.4693000  53.4943000
  31.5310000  19.3293000  52.3563000  34.6170000  27.5583000  56.6153000
  35.5680000  27.6583000  56.6373000  34.4470000  26.7663000  57.1253000
  32.6380000  24.6443000  56.8013000  32.0430000  24.9243000  56.1063000
  32.3530000  25.1333000  57.5733000  37.0950000  30.7793000  55.7303000
  37.0630000  29.8403000  55.9163000  37.7050000  30.8573000  54.9963000
  37.2450000  27.5703000  55.7753000  36.7290000  26.7863000  55.5883000
  38.1290000  27.2423000  55.9403000  34.9060000  21.3143000  51.7353000
  34.7080000  21.0053000  52.6193000  35.5160000  22.0403000  51.8653000
  42.9130000  31.8403000  54.8703000  43.6430000  31.5793000  55.4313000
  42.3040000  31.1033000  54.9103000  40.9950000  29.9813000  55.4683000
  40.2680000  29.8473000  54.8593000  40.5790000  30.2893000  56.2733000
  28.8180000  33.7003000  63.2323000  29.7380000  33.8783000  63.4263000
  28.7830000  32.7563000  63.0803000  18.0360000  28.8943000  52.1583000
  17.7160000  28.0403000  51.8653000  17.4890000  29.1093000  52.9133000
  21.8140000  31.6103000  55.8753000  22.0320000  32.5423000  55.8933000
  22.2260000  31.2513000  56.6603000  28.7340000  22.1173000  47.8623000
  27.9240000  21.7723000  48.2383000  29.4230000  21.8083000  48.4513000
  30.6630000  21.1953000  49.4853000  31.2160000  21.6143000  50.1443000
  30.9000000  20.2683000  49.5273000  26.6870000  27.1833000  65.2653000
  26.5860000  28.1333000  65.1963000  26.4690000  26.8553000  64.3923000
  17.9050000  32.5143000  54.1273000  17.2110000  32.1003000  53.6143000
  18.6520000  32.5563000  53.5303000  34.0410000  23.3053000  48.9923000
  33.4610000  23.9633000  48.6103000  33.7750000  22.4833000  48.5813000
  32.4920000  22.7053000  51.1953000  32.9910000  22.8173000  50.3863000
  33.1350000  22.4013000  51.8353000  26.5500000  30.6133000  64.0813000
  26.0660000  31.4133000  64.2883000  26.6360000  30.6243000  63.1283000
  19.8180000  32.4463000  52.0043000  19.7950000  32.5453000  51.0523000
  20.1280000  33.2933000  52.3253000  22.4770000  34.5043000  56.1183000
  23.4310000  34.4723000  56.0513000  22.2780000  34.0433000  56.9333000
  23.0670000  33.0743000  58.6853000  23.8860000  33.5683000  58.7093000
  23.3410000  32.1573000  58.6573000  36.1750000  25.4893000  51.7643000
  36.9510000  25.9793000  52.0363000  35.4500000  25.9153000  52.2213000
  38.6120000  26.2023000  52.8213000  39.2070000  25.9623000  52.1103000
  38.6850000  25.4833000  53.4483000  40.9190000  29.5093000  51.5953000
  40.3590000  29.5783000  52.3683000  40.3140000  29.3333000  50.8753000
  18.3200000  27.4083000  59.3853000  18.9660000  26.8973000  59.8733000
  18.1120000  28.1443000  59.9593000  30.8460000  34.4763000  64.8843000
  31.7150000  34.6503000  64.5223000  30.3660000  35.2953000  64.7613000
  26.8410000  21.6723000  45.1373000  26.8290000  22.6163000  45.2943000
  27.7330000  21.4893000  44.8433000  30.6560000  18.2663000  49.3923000
  29.8890000  17.7123000  49.5373000  31.0670000  18.3383000  50.2533000
  22.6600000  24.5543000  63.4823000  23.5230000  24.1983000  63.6923000
  22.0870000  24.2163000  64.1703000  42.5050000  46.1843000  54.2883000
  43.1430000  46.0653000  53.5853000  42.3870000  47.1333000  54.3473000
  39.7960000  47.2913000  60.1833000  39.7850000  46.8963000  59.3113000
  39.9580000  46.5573000  60.7763000  36.5170000  50.0743000  59.1313000
  36.2260000  50.9793000  59.0163000  37.1520000  50.1163000  59.8453000
  47.4600000  43.8473000  52.2673000  48.1930000  43.2773000  52.5013000
  46.7040000  43.4593000  52.7083000  44.9830000  37.5593000  56.7263000
  44.6510000  38.4293000  56.5023000  44.3870000  37.2433000  57.4063000
  41.4760000  49.7613000  56.1263000  41.1760000  50.6633000  56.0183000
  41.1310000  49.4943000  56.9783000  44.8750000  42.2793000  53.8063000
  43.9670000  42.2103000  53.5123000  44.8240000  42.7563000  54.6343000
  36.4580000  56.5253000  49.0933000  36.3800000  57.4763000  49.1723000
  35.8540000  56.1803000  49.7513000  38.9500000  43.6983000  61.7493000
  38.1730000  44.2573000  61.7393000  39.5890000  44.1833000  62.2713000
  46.7420000  40.4803000  55.5833000  46.0990000  40.7743000  54.9373000
  46.2370000  40.3663000  56.3893000  37.2040000  46.5063000  61.3113000
  37.9460000  47.0453000  61.0343000  36.4980000  47.1333000  61.4683000
  42.6800000  48.6493000  59.9083000  43.0880000  48.2073000  59.1643000
  41.9570000  48.0753000  60.1623000  43.0030000  49.2093000  53.6633000
  42.3730000  49.3743000  52.9613000  42.6150000  49.6243000  54.4353000
  46.8810000  50.1453000  51.0183000  46.1970000  50.5253000  50.4683000
  46.9660000  50.7543000  51.7513000  42.1830000  41.2473000  58.9403000
  41.9390000  42.0013000  58.4033000  42.4590000  41.6253000  59.7743000
  44.1370000  47.7913000  57.6173000  44.3480000  48.4343000  56.9413000
  44.0900000  46.9573000  57.1503000  41.7390000  40.4033000  54.5213000
  40.8780000  40.7013000  54.8133000  41.7650000  40.6203000  53.5893000
  35.9400000  43.6603000  62.1123000  35.3100000  44.3423000  62.3463000
  35.8340000  43.5493000  61.1683000  45.2510000  50.6683000  55.7903000
  46.0730000  50.2663000  55.5083000  45.2470000  50.5653000  56.7413000
  39.0170000  50.2163000  57.9463000  39.0810000  50.6783000  58.7823000
  38.3080000  49.5863000  58.0743000  53.3420000  47.0123000  52.1383000
  52.5880000  46.4433000  51.9833000  53.4770000  46.9783000  53.0853000
  35.2180000  37.9623000  64.4753000  34.8250000  37.4093000  65.1503000
  36.0350000  38.2733000  64.8663000  38.1350000  39.3783000  62.0673000
  38.8760000  39.9793000  61.9873000  38.3670000  38.6363000  61.5093000
  40.3580000  52.5063000  61.9443000  39.9150000  51.7193000  61.6263000
  41.0200000  52.6933000  61.2783000  35.1170000  54.0353000  56.4703000
  35.6680000  53.9073000  55.6973000  34.2780000  54.3353000  56.1193000
  42.4570000  52.7863000  59.9723000  42.4380000  53.6073000  59.4803000
  43.3790000  52.6613000  60.1973000  38.9140000  50.3003000  60.8143000
  39.4470000  49.5393000  60.5843000  38.3850000  50.0083000  61.5573000
  42.0810000  35.4063000  56.3433000  41.7370000  36.2963000  56.2673000
  42.4490000  35.2163000  55.4803000  45.2580000  47.6243000  53.4433000
  44.6010000  48.3143000  53.5313000  46.0630000  48.0133000  53.7863000
  44.0690000  45.9783000  51.4933000  44.5820000  46.6113000  51.9953000
  44.7190000  45.3783000  51.1273000  41.3310000  55.9573000  44.2493000
  40.6570000  56.2603000  44.8583000  41.7180000  56.7603000  43.9003000
  44.8350000  50.9593000  49.6213000  44.3810000  50.1183000  49.6783000
  44.2050000  51.5953000  49.9583000  43.2780000  52.7963000  50.5563000
  43.5710000  53.3573000  49.8373000  43.7880000  53.0893000  51.3113000
  43.8800000  34.6663000  51.4453000  44.1860000  33.8053000  51.1583000
  44.6050000  35.2573000  51.2453000  38.2420000  53.5743000  51.6453000
  38.1990000  53.8013000  50.7163000  39.1580000  53.3413000  51.7943000
  41.6880000  44.0433000  58.5433000  42.0430000  44.2703000  59.4033000
  42.3360000  44.3753000  57.9213000  47.4180000  47.1653000  49.2483000
  47.2800000  47.3553000  48.3203000  47.0620000  47.9273000  49.7053000
  47.4450000  49.2323000  54.2593000  47.8790000  49.1403000  55.1083000
  48.1580000  49.2083000  53.6213000  41.1780000  52.8333000  55.7933000
  41.2320000  53.4023000  56.5613000  40.3090000  53.0033000  55.4283000
  48.3070000  49.2753000  56.7933000  48.5000000  50.1793000  57.0393000
  48.2070000  48.8163000  57.6273000  39.9600000  39.1613000  59.2923000
  39.3130000  39.8603000  59.1983000  40.7300000  39.5943000  59.6593000
  43.3680000  49.4253000  62.3673000  43.2170000  49.1973000  61.4503000
  43.3590000  50.3833000  62.3803000  40.1370000  46.9993000  57.3513000
  41.0660000  47.1503000  57.1783000  39.7160000  47.0873000  56.4963000
  39.5300000  56.1253000  46.4643000  39.7060000  55.6533000  47.2783000
  38.8440000  56.7513000  46.6923000  40.4860000  50.4023000  52.5103000
  40.1510000  50.3623000  53.4063000  39.9860000  49.7363000  52.0373000
  45.0770000  52.4573000  60.4443000  45.0190000  51.7733000  59.7783000
  45.4790000  53.1993000  59.9933000  34.0960000  59.2743000  53.2383000
  34.3360000  59.9053000  53.9163000  33.2530000  58.9223000  53.5243000
  45.0790000  50.4213000  58.6763000  44.1920000  50.0843000  58.7993000
  45.6490000  49.6903000  58.9133000  38.6090000  55.0813000  55.6423000
  38.5360000  55.8873000  56.1543000  38.1670000  55.2813000  54.8173000
  38.3980000  54.3193000  49.1523000  37.6150000  54.8613000  49.2463000
  39.0980000  54.8363000  49.5523000  49.5610000  45.8323000  53.4383000
  49.5500000  46.7153000  53.0673000  48.6930000  45.4793000  53.2433000
  41.0690000  54.9803000  57.7983000  41.7820000  55.6153000  57.7253000
  40.5780000  55.0773000  56.9823000  42.7910000  48.8853000  49.3703000
  41.8570000  49.0053000  49.2003000  42.9690000  47.9833000  49.1063000
  46.1780000  44.7273000  49.9053000  46.6440000  45.5603000  49.8313000
  46.6290000  44.2623000  50.6093000  36.1200000  52.7303000  58.6183000
  36.8210000  53.3633000  58.7713000  35.6500000  53.0713000  57.8583000
  44.2460000  51.0713000  46.9033000  44.5220000  50.9573000  47.8133000
  43.3760000  50.6733000  46.8643000  44.1500000  37.0953000  53.9443000
  43.2360000  37.3253000  54.1123000  44.5790000  37.1793000  54.7953000
  43.9200000  45.2843000  56.4443000  43.2680000  45.5323000  55.7893000
  44.2980000  44.4703000  56.1103000  40.8810000  55.3203000  50.5463000
  41.0630000  54.5023000  51.0093000  41.7040000  55.5373000  50.1093000
  41.2150000  54.2473000  47.8083000  41.7440000  53.7363000  47.1953000
  41.4780000  53.9313000  48.6733000  39.9690000  46.0263000  62.9303000
  39.2930000  45.9253000  63.6003000  40.7920000  45.8703000  63.3943000
  38.7110000  57.3333000  57.1663000  39.2630000  57.4963000  57.9313000
  39.0520000  57.9233000  56.4943000  33.1630000  41.7533000  61.4153000
  33.7900000  41.3703000  62.0293000  32.3060000  41.5343000  61.7813000
  43.5630000  52.1593000  63.0213000  44.1070000  52.7723000  62.5263000
  42.9810000  52.7173000  63.5383000  41.8480000  55.2813000  54.1523000
  41.7230000  54.4803000  53.6433000  42.5060000  55.7763000  53.6643000
  43.9120000  53.0823000  55.7803000  42.9650000  52.9623000  55.7083000
  44.2600000  52.1943000  55.8633000  36.2720000  38.9713000  59.6043000
  36.7950000  39.2173000  60.3673000  36.0530000  39.8033000  59.1843000
  40.9160000  52.8773000  51.9813000  40.7690000  51.9493000  52.1623000
  41.7420000  52.8993000  51.4963000  44.5200000  53.7003000  53.0673000
  45.4450000  53.4943000  52.9303000  44.3510000  53.4523000  53.9763000
  44.3090000  54.2193000  48.4233000  44.4830000  53.6533000  47.6713000
  44.8020000  55.0193000  48.2413000  50.1630000  46.9823000  50.0423000
  50.6060000  46.2333000  49.6443000  49.2860000  46.9733000  49.6603000
  45.2970000  53.5353000  45.5233000  45.9920000  54.1563000  45.7423000
  45.6390000  52.6853000  45.7983000  47.1960000  50.9853000  47.0523000
  47.7210000  51.3243000  46.3273000  47.1080000  50.0503000  46.8683000
  38.8580000  54.8993000  59.1813000  39.1670000  54.6533000  60.0533000
  39.6560000  55.1033000  58.6933000  38.8800000  57.0523000  51.4113000
  38.4410000  56.5603000  52.1053000  39.6310000  56.5103000  51.1713000
  36.4000000  41.0743000  63.0773000  36.4490000  41.9513000  62.6953000
  36.9420000  40.5323000  62.5043000  46.8850000  51.6183000  62.3573000
  46.0950000  51.6013000  61.8173000  46.6490000  52.1573000  63.1123000
  47.0050000  48.4683000  59.6703000  47.0550000  48.3033000  60.6123000
  46.8970000  47.6003000  59.2803000  44.2960000  44.4513000  60.9863000
  45.1970000  44.3113000  60.6953000  44.3700000  44.6163000  61.9263000
  48.5070000  50.8873000  59.9143000  48.2160000  51.2503000  60.7513000
  47.8940000  50.1743000  59.7363000  49.7070000  48.4533000  52.4353000
  50.5410000  48.8923000  52.5983000  49.8430000  47.9773000  51.6163000
  46.7560000  46.0113000  58.3823000  47.2310000  46.2033000  57.5743000
  45.8320000  46.0673000  58.1373000  41.3340000  38.0453000  57.3483000
  41.8520000  38.7823000  57.0233000  40.9790000  38.3523000  58.1833000
  41.5850000  34.4653000  52.8683000  41.8650000  33.7983000  53.4943000
  42.3700000  34.6583000  52.3563000  45.4560000  42.8873000  56.6153000
  46.4080000  42.9873000  56.6373000  45.2860000  42.0953000  57.1253000
  43.4770000  39.9733000  56.8013000  42.8820000  40.2533000  56.1063000
  43.1920000  40.4623000  57.5733000  42.6080000  53.9253000  45.5623000
  43.5410000  53.8603000  45.7653000  42.5200000  54.7613000  45.1033000
  45.2370000  53.2423000  42.5223000  45.1580000  52.9083000  43.4153000
  46.0580000  53.7343000  42.5213000  47.9350000  46.1083000  55.7303000
  47.9020000  45.1693000  55.9163000  48.5450000  46.1863000  54.9963000
  48.0840000  42.8993000  55.7753000  47.5680000  42.1153000  55.5883000
  48.9680000  42.5713000  55.9403000  45.7450000  36.6433000  51.7353000
  45.5480000  36.3353000  52.6193000  46.3550000  37.3693000  51.8653000
  53.7520000  47.1693000  54.8703000  54.4830000  46.9083000  55.4313000
  53.1430000  46.4323000  54.9103000  51.8340000  45.3103000  55.4683000
  51.1070000  45.1763000  54.8593000  51.4190000  45.6183000  56.2733000
  39.6570000  49.0293000  63.2323000  40.5770000  49.2073000  63.4263000
  39.6220000  48.0853000  63.0803000  37.5260000  42.5133000  65.2653000
  37.4260000  43.4623000  65.1963000  37.3080000  42.1843000  64.3923000
  37.3890000  45.9423000  64.0813000  36.9060000  46.7423000  64.2883000
  37.4750000  45.9533000  63.1283000  33.9060000  48.4033000  58.6853000
  34.7260000  48.8973000  58.7093000  34.1800000  47.4863000  58.6573000
  47.0140000  40.8193000  51.7643000  47.7910000  41.3083000  52.0363000
  46.2890000  41.2443000  52.2213000  49.4520000  41.5313000  52.8213000
  50.0460000  41.2913000  52.1103000  49.5240000  40.8123000  53.4483000
  31.6710000  55.3753000  53.1353000  31.5370000  54.6153000  52.5693000
  31.2550000  56.0993000  52.6683000  51.7590000  44.8383000  51.5953000
  51.1990000  44.9073000  52.3683000  51.1530000  44.6623000  50.8753000
  34.8280000  56.2723000  53.3473000  34.7120000  57.2163000  53.2453000
  34.0080000  55.9693000  53.7363000  41.6850000  49.8053000  64.8843000
  42.5540000  49.9793000  64.5223000  41.2060000  50.6243000  64.7613000
  35.8540000  56.9253000  56.5633000  36.7570000  56.9573000  56.8793000
  35.6280000  55.9953000  56.5773000  37.6090000  55.6783000  53.2243000
  36.6590000  55.6783000  53.1103000  37.9120000  54.9313000  52.7073000
  33.5000000  39.8843000  63.4823000  34.3630000  39.5273000  63.6923000
  32.9260000  39.5453000  64.1703000  53.3440000  61.5143000  54.2883000
  53.9820000  61.3943000  53.5853000  53.2270000  62.4623000  54.3473000
  50.1530000  61.4663000  54.2243000  49.8150000  61.3513000  53.3363000
  51.0220000  61.0663000  54.2053000  46.0120000  63.3203000  50.2143000
  45.4490000  63.2293000  49.4463000  45.8970000  62.5003000  50.6943000
  43.5590000  64.8153000  53.0533000  44.3510000  64.4743000  52.6373000
  43.7980000  64.9253000  53.9733000  51.5920000  66.9873000  45.5263000
  50.9410000  67.5723000  45.1393000  52.3860000  67.5183000  45.5853000
  45.5180000  64.0763000  45.9243000  46.2910000  63.5293000  45.7863000
  45.8700000  64.9403000  46.1363000  48.2820000  62.7813000  55.7213000
  48.8780000  62.5573000  55.0073000  48.3390000  62.0403000  56.3243000
  47.8540000  60.2353000  43.5563000  48.1070000  59.7133000  42.7943000
  46.9170000  60.0723000  43.6593000  52.8990000  59.2393000  51.3643000
  53.6850000  58.8213000  51.0133000  53.1620000  60.1433000  51.5323000
  53.0700000  64.6763000  46.0623000  52.4340000  64.7503000  46.7753000
  52.7390000  65.2653000  45.3843000  58.2990000  59.1763000  52.2673000
  59.0320000  58.6063000  52.5013000  57.5430000  58.7893000  52.7083000
  47.5740000  62.1383000  45.7593000  47.4570000  61.4633000  46.4273000
  47.6840000  61.6513000  44.9423000  49.9170000  61.5993000  49.4633000
  49.5530000  61.0723000  50.1753000  50.7740000  61.2093000  49.2903000
  55.8220000  52.8893000  56.7263000  55.4900000  53.7583000  56.5023000
  55.2260000  52.5723000  57.4063000  49.5580000  56.6283000  44.4593000
  49.7250000  57.4963000  44.8263000  49.3670000  56.7913000  43.5353000
  45.7660000  61.5413000  52.1603000  44.8410000  61.4093000  52.3673000
  46.0150000  62.3213000  52.6573000  55.7150000  57.6083000  53.8063000
  54.8060000  57.5403000  53.5123000  55.6640000  58.0853000  54.6343000
  49.5360000  59.0843000  45.4443000  49.4160000  59.5303000  46.2833000
  48.8420000  59.4323000  44.8853000  43.1270000  61.1843000  52.9943000
  43.2560000  61.4383000  53.9083000  42.4470000  61.7773000  52.6743000
  47.2970000  71.8543000  49.0933000  47.2200000  72.8053000  49.1723000
  46.6930000  71.5093000  49.7513000  57.5810000  55.8103000  55.5833000
  56.9380000  56.1033000  54.9373000  57.0760000  55.6953000  56.3893000
  55.2350000  59.5563000  46.2723000  56.1470000  59.7893000  46.0973000
  54.7260000  60.1403000  45.7103000  49.8720000  58.9163000  57.2823000
  50.7180000  59.3403000  57.4253000  49.8120000  58.2593000  57.9753000
  53.8420000  64.5393000  53.6633000  53.2130000  64.7033000  52.9613000
  53.4550000  64.9533000  54.4353000  57.7210000  65.4743000  51.0183000
  57.0360000  65.8543000  50.4683000  57.8050000  66.0843000  51.7513000
  53.0220000  56.5763000  58.9403000  52.7780000  57.3303000  58.4033000
  53.2980000  56.9553000  59.7743000  52.5790000  55.7323000  54.5213000
  51.7170000  56.0303000  54.8133000  52.6050000  55.9493000  53.5893000
  49.3950000  64.2763000  50.9283000  49.8590000  64.5553000  50.1393000
  49.1300000  63.3743000  50.7463000  46.2870000  63.8233000  53.8663000
  46.8570000  64.2523000  53.2283000  46.8780000  63.5413000  54.5653000
  48.3320000  60.3983000  47.7373000  49.0340000  60.8503000  48.2053000
  48.0000000  59.7573000  48.3653000  42.0740000  58.6573000  53.0393000
  41.2840000  58.9123000  52.5633000  42.5650000  59.4723000  53.1443000
  44.0260000  59.0213000  49.9973000  43.2290000  59.1333000  50.5163000
  43.7980000  59.3603000  49.1323000  40.3580000  58.9103000  55.4713000
  40.6090000  59.7943000  55.7363000  40.8940000  58.7303000  54.6983000
  49.5710000  67.2123000  47.8143000  49.4360000  68.0583000  48.2423000
  50.1120000  67.4143000  47.0503000  46.0580000  53.2923000  64.4753000
  45.6640000  52.7383000  65.1503000  46.8740000  53.6033000  64.8663000
  43.0240000  64.7303000  48.3863000  43.5360000  65.5243000  48.5373000
  43.6760000  64.0333000  48.3203000  44.8330000  67.8473000  50.4693000
  45.0100000  68.7683000  50.2813000  45.6290000  67.5323000  50.8983000
  48.9750000  54.7073000  62.0673000  49.7160000  55.3083000  61.9873000
  49.2060000  53.9653000  61.5093000  44.1190000  59.8933000  60.3453000
  44.0040000  58.9923000  60.6463000  43.2630000  60.1393000  59.9933000
  52.9200000  50.7353000  56.3433000  52.5770000  51.6263000  56.2673000
  53.2880000  50.5463000  55.4803000  40.9890000  63.0593000  49.1623000
  41.8260000  63.4693000  48.9463000  41.1670000  62.1193000  49.1323000
  52.8850000  60.7263000  44.8513000  52.3700000  61.4973000  45.0903000
  52.6130000  60.0533000  45.4743000  50.4700000  55.5713000  49.9093000
  49.6140000  55.1823000  49.7303000  50.8830000  55.6513000  49.0493000
  52.0000000  53.1063000  54.3083000  51.4960000  53.0693000  53.4953000
  52.2930000  54.0153000  54.3683000  48.2440000  53.1903000  53.3153000
  49.1090000  52.9943000  52.9563000  48.3120000  52.9613000  54.2423000
  57.8590000  63.4803000  46.7863000  57.0820000  63.1413000  46.3423000
  58.5380000  63.4853000  46.1123000  52.6740000  58.5993000  46.6773000
  52.3690000  58.9143000  47.5283000  53.6270000  58.6773000  46.7193000
  51.1190000  64.7583000  48.3263000  50.5910000  64.0233000  48.0133000
  50.6170000  65.5363000  48.0803000  56.0980000  62.9533000  53.4433000
  55.4400000  63.6433000  53.5313000  56.9020000  63.3433000  53.7863000
  45.8500000  55.4203000  50.6873000  46.4250000  55.1983000  49.9543000
  46.4380000  55.4893000  51.4403000  54.9080000  61.3073000  51.4933000
  55.4220000  61.9403000  51.9953000  55.5590000  60.7083000  51.1273000
  46.1770000  57.4503000  44.7063000  45.3410000  57.7883000  45.0273000
  46.0380000  57.3153000  43.7693000  48.1530000  52.2943000  49.4143000
  47.4990000  51.9793000  48.7903000  48.1110000  51.6723000  50.1403000
  51.3860000  58.7823000  53.7393000  50.4690000  59.0043000  53.5813000
  51.8020000  58.8573000  52.8803000  52.1700000  60.1813000  48.8693000
  52.9170000  60.6943000  48.5603000  52.4390000  59.8603000  49.7303000
  50.4430000  62.6773000  45.8523000  49.5340000  62.3933000  45.9493000
  50.4720000  63.0973000  44.9923000  55.6750000  66.2883000  49.6213000
  55.2210000  65.4473000  49.6783000  55.0440000  66.9243000  49.9583000
  54.6180000  57.2173000  50.8513000  53.8800000  56.7053000  51.1823000
  54.8710000  56.7773000  50.0393000  54.1180000  68.1263000  50.5563000
  54.4100000  68.6863000  49.8373000  54.6280000  68.4193000  51.3113000
  54.7190000  49.9953000  51.4453000  55.0250000  49.1353000  51.1583000
  55.4440000  50.5873000  51.2453000  41.0110000  60.3983000  49.8333000
  40.8140000  59.8053000  49.1093000  40.4560000  60.0933000  50.5513000
  48.9910000  60.2903000  51.9533000  49.0460000  59.3383000  51.8773000
  48.1800000  60.4463000  52.4373000  50.1400000  64.2183000  43.1913000
  49.7020000  63.5023000  42.7313000  50.8810000  64.4463000  42.6293000
  46.9300000  58.9083000  49.7123000  46.1170000  59.2073000  50.1183000
  47.4260000  58.5133000  50.4293000  49.0810000  68.9043000  51.6453000
  49.0390000  69.1303000  50.7163000  49.9970000  68.6703000  51.7943000
  58.2580000  62.4943000  49.2483000  58.1190000  62.6843000  48.3203000
  57.9010000  63.2563000  49.7053000  46.4220000  56.4803000  55.3283000
  47.0620000  56.3393000  54.6303000  45.5900000  56.1933000  54.9523000
  47.1980000  65.7803000  51.4423000  47.9920000  65.2853000  51.2403000
  46.4870000  65.2523000  51.0783000  43.5060000  59.9243000  47.5183000
  42.5760000  59.8633000  47.7353000  43.6020000  59.4023000  46.7213000
  43.4250000  56.4503000  50.1053000  43.6850000  57.3643000  49.9963000
  44.2460000  55.9823000  50.2553000  44.8970000  57.8643000  57.2753000
  45.5690000  57.6553000  56.6263000  44.0700000  57.6663000  56.8363000
  50.8000000  54.4903000  59.2923000  50.1520000  55.1893000  59.1983000
  51.5700000  54.9233000  59.6593000  50.9760000  62.3283000  57.3513000
  51.9050000  62.4793000  57.1783000  50.5550000  62.4163000  56.4963000
  49.7750000  66.3533000  55.1213000  49.6360000  65.9853000  55.9943000
  48.9860000  66.8683000  54.9503000  50.3700000  71.4543000  46.4643000
  50.5450000  70.9833000  47.2783000  49.6830000  72.0803000  46.6923000
  51.3250000  65.7313000  52.5103000  50.9900000  65.6913000  53.4063000
  50.8260000  65.0663000  52.0373000  45.3000000  61.1383000  58.0353000
  45.1620000  60.4063000  58.6373000  46.2100000  61.0493000  57.7543000
  54.2610000  63.0773000  42.7843000  53.6440000  62.3513000  42.6873000
  53.7930000  63.8383000  42.4413000  47.9280000  60.8503000  57.5243000
  48.6380000  60.2093000  57.4823000  47.8850000  61.1013000  58.4463000
  46.6410000  57.8363000  59.3433000  46.1050000  57.3853000  59.9963000
  46.0530000  57.9713000  58.6003000  46.0510000  57.2953000  41.9063000
  45.1740000  57.1743000  41.5423000  46.5270000  56.5043000  41.6543000
  37.5710000  62.0833000  52.0003000  38.2590000  61.7693000  51.4123000
  37.4160000  62.9873000  51.7273000  42.3750000  56.9723000  56.4293000
  42.2910000  56.3653000  55.6943000  41.5530000  57.4633000  56.4303000
  49.2380000  69.6483000  49.1523000  48.4540000  70.1903000  49.2463000
  49.9370000  70.1653000  49.5523000  52.5470000  55.4573000  51.7963000
  53.0440000  54.7043000  51.4763000  51.7760000  55.4943000  51.2303000
  60.4000000  61.1613000  53.4383000  60.3890000  62.0443000  53.0673000
  59.5320000  60.8083000  53.2433000  53.6300000  64.2143000  49.3703000
  52.6960000  64.3353000  49.2003000  53.8080000  63.3123000  49.1063000
  49.1310000  57.5993000  51.5233000  48.7610000  57.0463000  52.2113000
  49.6270000  56.9953000  50.9703000  57.0180000  60.0563000  49.9053000
  57.4840000  60.8893000  49.8313000  57.4680000  59.5913000  50.6093000
  55.0850000  66.4013000  46.9033000  55.3610000  66.2863000  47.8133000
  54.2160000  66.0023000  46.8643000  54.9890000  52.4243000  53.9443000
  54.0750000  52.6553000  54.1123000  55.4180000  52.5083000  54.7953000
  54.7600000  60.6133000  56.4443000  54.1070000  60.8613000  55.7893000
  55.1380000  59.8003000  56.1103000  52.0550000  69.5763000  47.8083000
  52.5840000  69.0653000  47.1953000  52.3180000  69.2603000  48.6733000
  42.5560000  67.5923000  55.5513000  43.1420000  66.8473000  55.6843000
  42.3590000  67.9033000  56.4353000  45.4100000  70.6283000  50.5683000
  44.7410000  71.1123000  50.0843000  45.2720000  70.8743000  51.4823000
  37.1480000  60.1633000  54.2723000  37.1870000  59.6293000  55.0663000
  36.6420000  59.6363000  53.6533000  44.5270000  55.0093000  57.7683000
  44.5910000  55.8713000  57.3563000  44.4640000  54.3973000  57.0353000
  44.0030000  57.0823000  61.4153000  44.6300000  56.6993000  62.0293000
  43.1450000  56.8633000  61.7813000  40.7790000  58.8893000  47.3473000
  41.0740000  57.9803000  47.2943000  39.8780000  58.8683000  47.0253000
  44.3090000  56.9653000  53.3303000  43.5870000  57.5793000  53.1913000
  45.0980000  57.5013000  53.2523000  47.1110000  54.3003000  59.6043000
  47.6350000  54.5473000  60.3673000  46.8920000  55.1323000  59.1843000
  42.5080000  56.5713000  47.4713000  42.1790000  55.6913000  47.2893000
  42.8620000  56.5163000  48.3593000  51.7560000  68.2063000  51.9813000
  51.6080000  67.2783000  52.1623000  52.5810000  68.2283000  51.4963000
  45.6220000  56.8583000  47.8393000  45.9620000  57.3873000  47.1173000
  46.0690000  57.1963000  48.6153000  48.3160000  55.2423000  57.2893000
  47.9760000  54.4433000  57.6913000  47.6100000  55.5423000  56.7173000
  48.9680000  52.3273000  55.7423000  49.7910000  51.8533000  55.6203000
  49.2120000  53.1063000  56.2423000  47.6090000  55.3563000  46.0383000
  48.3300000  55.7343000  45.5353000  46.9850000  56.0743000  46.1423000
  51.7520000  56.0603000  46.9743000  51.9680000  56.9433000  46.6733000
  51.2710000  55.6693000  46.2453000  46.4920000  59.0193000  53.5513000
  46.3460000  59.3333000  54.4433000  46.0140000  59.6373000  52.9983000
  48.3520000  56.0093000  53.5993000  48.3380000  55.1133000  53.2623000
  49.0690000  56.0163000  54.2333000  50.2040000  56.4433000  55.6443000
  49.9460000  57.3643000  55.6433000  49.6730000  56.0463000  56.3343000
  40.9660000  61.5593000  56.4903000  40.4220000  62.3353000  56.6223000
  41.8440000  61.9063000  56.3323000  47.7550000  54.8903000  48.8683000
  47.8770000  53.9623000  49.0673000  47.4650000  54.9043000  47.9563000
  50.6240000  52.5763000  52.0053000  50.6470000  52.6403000  51.0503000
  51.0410000  51.7363000  52.1993000  61.0030000  62.3113000  50.0423000
  61.4460000  61.5623000  49.6443000  60.1250000  62.3023000  49.6603000
  41.7530000  60.6863000  59.3833000  41.0110000  60.8343000  59.9693000
  41.4320000  60.9473000  58.5193000  49.7200000  72.3823000  51.4113000
  49.2800000  71.8893000  52.1053000  50.4700000  71.8393000  51.1713000
  42.1990000  68.5733000  51.4143000  43.0250000  68.2733000  51.0343000
  41.8480000  67.8033000  51.8633000  47.1670000  67.9253000  53.4843000
  46.5450000  67.2623000  53.1843000  47.8370000  67.9513000  52.8013000
  40.4000000  66.4913000  52.3733000  39.5630000  66.0643000  52.1913000
  40.3720000  66.6853000  53.3103000  46.7280000  66.4763000  46.9593000
  46.8770000  67.1593000  46.3063000  47.5350000  66.4563000  47.4743000
  49.4690000  57.1573000  59.8323000  48.6000000  57.4503000  59.5603000
  49.7050000  57.7413000  60.5523000  60.5460000  63.7823000  52.4353000
  61.3810000  64.2213000  52.5983000  60.6820000  63.3063000  51.6163000
  44.4840000  62.5023000  47.9663000  44.2380000  61.5983000  48.1643000
  44.6530000  62.5043000  47.0243000  52.1730000  53.3753000  57.3483000
  52.6910000  54.1113000  57.0233000  51.8190000  53.6813000  58.1833000
  43.7530000  58.2353000  45.4643000  43.0600000  58.3103000  44.8083000
  43.5080000  57.4713000  45.9863000  52.4240000  49.7953000  52.8683000
  52.7050000  49.1273000  53.4943000  53.2090000  49.9883000  52.3563000
  50.2280000  68.9713000  44.4313000  49.6550000  69.5903000  43.9783000
  50.8010000  69.5203000  44.9653000  56.2950000  58.2163000  56.6153000
  57.2470000  58.3163000  56.6373000  56.1260000  57.4243000  57.1253000
  54.3170000  55.3023000  56.8013000  53.7220000  55.5823000  56.1063000
  54.0320000  55.7913000  57.5733000  53.4480000  69.2543000  45.5623000
  54.3810000  69.1893000  45.7653000  53.3600000  70.0903000  45.1033000
  50.6120000  60.3073000  41.7723000  51.5580000  60.1773000  41.8413000
  50.2340000  59.5683000  42.2493000  58.9240000  58.2283000  55.7753000
  58.4070000  57.4443000  55.5883000  59.8080000  57.9003000  55.9403000
  56.5850000  51.9723000  51.7353000  56.3870000  51.6643000  52.6193000
  57.1950000  52.6983000  51.8653000  48.7970000  58.2323000  41.7083000
  47.8900000  57.9353000  41.7843000  49.0740000  57.9353000  40.8413000
  39.7150000  59.5523000  52.1583000  39.3950000  58.6993000  51.8653000
  39.1680000  59.7673000  52.9133000  43.4930000  62.2693000  55.8753000
  43.7110000  63.2003000  55.8933000  43.9050000  61.9093000  56.6603000
  50.4130000  52.7753000  47.8623000  49.6030000  52.4303000  48.2383000
  51.1010000  52.4663000  48.4513000  52.3420000  51.8533000  49.4853000
  52.8950000  52.2733000  50.1443000  52.5790000  50.9273000  49.5273000
  47.5670000  55.0903000  41.8493000  48.4290000  55.4163000  42.1093000
  47.7520000  54.3033000  41.3363000  39.5830000  63.1733000  54.1273000
  38.8900000  62.7583000  53.6143000  40.3310000  63.2153000  53.5303000
  55.7200000  53.9633000  48.9923000  55.1400000  54.6223000  48.6103000
  55.4530000  53.1413000  48.5813000  54.1700000  53.3643000  51.1953000
  54.6700000  53.4753000  50.3863000  54.8140000  53.0603000  51.8353000
  41.4970000  63.1043000  52.0043000  41.4740000  63.2033000  51.0523000
  41.8070000  63.9513000  52.3253000  44.1560000  65.1623000  56.1183000
  45.1100000  65.1303000  56.0513000  43.9570000  64.7013000  56.9333000
  44.7460000  63.7323000  58.6853000  45.5650000  64.2273000  58.7093000
  45.0190000  62.8153000  58.6573000  54.5020000  56.1233000  48.0483000
  53.6150000  56.4083000  47.8303000  54.9180000  55.9633000  47.2013000
  57.8540000  56.1483000  51.7643000  58.6300000  56.6373000  52.0363000
  57.1290000  56.5743000  52.2213000  60.2910000  56.8613000  52.8213000
  60.8860000  56.6203000  52.1103000  60.3640000  56.1413000  53.4483000
  42.5110000  70.7043000  53.1353000  42.3760000  69.9443000  52.5693000
  42.0940000  71.4283000  52.6683000  53.6470000  65.8883000  42.1433000
  54.3500000  66.0933000  42.7593000  52.9230000  66.4553000  42.4083000
  54.4760000  61.6393000  48.2633000  54.4200000  62.0963000  47.4243000
  55.0290000  60.8783000  48.0853000  58.2870000  57.4283000  49.0883000
  58.0310000  57.0273000  49.9193000  57.6620000  58.1423000  48.9633000
  62.5980000  60.1673000  51.5953000  62.0380000  60.2373000  52.3683000
  61.9930000  59.9913000  50.8753000  45.6680000  71.6013000  53.3473000
  45.5510000  72.5453000  53.2453000  44.8470000  71.2983000  53.7363000
  55.5550000  66.3263000  44.1933000  56.3900000  65.8943000  44.0103000
  55.3940000  66.1543000  45.1203000  55.2100000  62.8293000  45.5583000
  55.1550000  62.6643000  44.6173000  54.5850000  63.5373000  45.7153000
  39.9990000  58.0663000  59.3853000  40.6450000  57.5563000  59.8733000
  39.7910000  58.8033000  59.9593000  48.5200000  52.3303000  45.1373000
  48.5070000  53.2743000  45.2943000  49.4120000  52.1473000  44.8433000
  48.4490000  71.0073000  53.2243000  47.4980000  71.0073000  53.1103000
  48.7520000  70.2603000  52.7073000  52.3350000  48.9243000  49.3923000
  51.5680000  48.3703000  49.5373000  52.7460000  48.9963000  50.2533000
  44.3390000  55.2133000  63.4823000  45.2020000  54.8563000  63.6923000
  43.7660000  54.8743000  64.1703000  31.6660000   7.8623000  41.0133000
  32.3040000   7.7423000  40.3093000  31.5480000   8.8103000  41.0723000
  28.4750000   7.8143000  40.9493000  28.1360000   7.6983000  40.0613000
  29.3440000   7.4133000  40.9293000  24.3330000   9.6683000  36.9393000
  23.7700000   9.5773000  36.1703000  24.2190000   8.8483000  37.4193000
  28.9570000   8.9683000  46.9083000  28.9450000   8.5733000  46.0363000
  29.1190000   8.2343000  47.5013000  21.8800000  11.1633000  39.7773000
  22.6720000  10.8223000  39.3623000  22.1190000  11.2723000  40.6973000
  29.9130000  13.3353000  32.2503000  29.2620000  13.9203000  31.8633000
  30.7080000  13.8663000  32.3103000  23.8390000  10.4243000  32.6493000
  24.6120000   9.8773000  32.5103000  24.1910000  11.2883000  32.8603000
  25.6770000  11.7513000  45.8553000  25.3860000  12.6563000  45.7403000
  26.3130000  11.7933000  46.5703000  26.6030000   9.1293000  42.4463000
  27.1990000   8.9053000  41.7313000  26.6600000   8.3883000  43.0483000
  26.1750000   6.5833000  30.2813000  26.4280000   6.0613000  29.5193000
  25.2380000   6.4203000  30.3833000  31.2200000   5.5873000  38.0883000
  32.0060000   5.1693000  37.7373000  31.4840000   6.4913000  38.2563000
  31.3910000  11.0243000  32.7873000  30.7550000  11.0973000  33.4993000
  31.0610000  11.6133000  32.1093000  25.8950000   8.4863000  32.4833000
  25.7790000   7.8103000  33.1513000  26.0050000   7.9993000  31.6663000
  28.2380000   7.9473000  36.1883000  27.8740000   7.4203000  36.8993000
  29.0950000   7.5573000  36.0143000  27.8790000   2.9763000  31.1843000
  28.0460000   3.8443000  31.5513000  27.6890000   3.1393000  30.2603000
  30.6360000  11.4383000  42.8503000  30.3360000  12.3403000  42.7423000
  30.2910000  11.1713000  43.7033000  24.0880000   7.8893000  38.8843000
  23.1630000   7.7573000  39.0923000  24.3360000   8.6683000  39.3813000
  27.8580000   5.4323000  32.1693000  27.7380000   5.8773000  33.0073000
  27.1630000   5.7803000  31.6103000  21.4480000   7.5323000  39.7193000
  21.5780000   7.7863000  40.6323000  20.7680000   8.1253000  39.3993000
  25.6180000  18.2023000  35.8183000  25.5410000  19.1533000  35.8963000
  25.0150000  17.8573000  36.4753000  28.1100000   5.3753000  48.4743000
  27.3330000   5.9343000  48.4643000  28.7490000   5.8603000  48.9953000
  33.5560000   5.9043000  32.9973000  34.4680000   6.1373000  32.8213000
  33.0470000   6.4883000  32.4343000  26.3650000   8.1833000  48.0353000
  27.1060000   8.7223000  47.7593000  25.6580000   8.8103000  48.1933000
  31.8400000  10.3263000  46.6333000  32.2490000   9.8853000  45.8883000
  31.1180000   9.7523000  46.8863000  28.1930000   5.2643000  44.0063000
  29.0400000   5.6873000  44.1503000  28.1330000   4.6073000  44.7003000
  32.1630000  10.8863000  40.3883000  31.5340000  11.0513000  39.6863000
  31.7760000  11.3013000  41.1593000  36.0420000  11.8223000  37.7423000
  35.3570000  12.2023000  37.1923000  36.1270000  12.4313000  38.4763000
  33.2970000   9.4683000  44.3423000  33.5090000  10.1113000  43.6653000
  33.2500000   8.6343000  43.8743000  27.7160000  10.6243000  37.6533000
  28.1800000  10.9033000  36.8633000  27.4520000   9.7223000  37.4703000
  24.6080000  10.1713000  40.5913000  25.1790000  10.6003000  39.9533000
  25.1990000   9.8893000  41.2893000  26.6530000   6.7463000  34.4623000
  27.3550000   7.1983000  34.9293000  26.3210000   6.1053000  35.0903000
  25.1010000   5.3373000  48.8373000  24.4710000   6.0193000  49.0713000
  24.9950000   5.2263000  47.8923000  20.3950000   5.0053000  39.7643000
  19.6050000   5.2603000  39.2883000  20.8870000   5.8193000  39.8693000
  34.4120000  12.3453000  42.5143000  35.2340000  11.9433000  42.2323000
  34.4080000  12.2423000  43.4663000  22.3470000   5.3693000  36.7223000
  21.5500000   5.4813000  37.2403000  22.1190000   5.7083000  35.8563000
  28.1770000  11.8933000  44.6703000  28.2420000  12.3553000  45.5063000
  27.4690000  11.2633000  44.7983000  18.6790000   5.2583000  42.1953000
  18.9300000   6.1423000  42.4613000  19.2150000   5.0783000  41.4233000
  42.5020000   8.6893000  38.8633000  41.7490000   8.1203000  38.7073000
  42.6370000   8.6553000  39.8103000  27.8920000  13.5603000  34.5383000
  27.7570000  14.4053000  34.9673000  28.4330000  13.7623000  33.7753000
  21.3450000  11.0783000  35.1113000  21.8580000  11.8723000  35.2613000
  21.9970000  10.3803000  35.0443000  23.1550000  14.1943000  37.1933000
  23.3310000  15.1163000  37.0053000  23.9500000  13.8803000  37.6233000
  22.4400000   6.2413000  47.0693000  22.3250000   5.3393000  47.3703000
  21.5840000   6.4873000  46.7183000  29.5190000  14.1833000  48.6683000
  29.0750000  13.3963000  48.3503000  30.1810000  14.3713000  48.0033000
  24.2780000  15.7123000  43.1943000  24.8290000  15.5843000  42.4223000
  23.4390000  16.0123000  42.8443000  31.6170000  14.4633000  46.6963000
  31.5990000  15.2843000  46.2043000  32.5390000  14.3383000  46.9213000
  28.0750000  11.9773000  47.5393000  28.6070000  11.2163000  47.3093000
  27.5460000  11.6853000  48.2813000  19.3100000   9.4073000  35.8873000
  20.1480000   9.8163000  35.6703000  19.4880000   8.4673000  35.8573000
  31.2070000   7.0743000  31.5753000  30.6910000   7.8453000  31.8143000
  30.9340000   6.4013000  32.1993000  36.1800000   9.8273000  33.5113000
  35.4030000   9.4893000  33.0663000  36.8590000   9.8333000  32.8363000
  30.9950000   4.9473000  33.4013000  30.6900000   5.2613000  34.2523000
  31.9480000   5.0253000  33.4443000  29.4400000  11.1063000  35.0513000
  28.9120000  10.3713000  34.7383000  28.9390000  11.8833000  34.8053000
  34.4190000   9.3013000  40.1673000  33.7610000   9.9913000  40.2553000
  35.2230000   9.6903000  40.5113000  24.1720000   1.7683000  37.4113000
  24.7460000   1.5453000  36.6793000  24.7590000   1.8373000  38.1643000
  33.2300000   7.6553000  38.2183000  33.7430000   8.2883000  38.7203000
  33.8800000   7.0553000  37.8523000  24.4990000   3.7983000  31.4313000
  23.6620000   4.1363000  31.7523000  24.3590000   3.6633000  30.4933000
  27.5850000   8.9243000  28.0543000  26.6780000   8.6933000  28.2533000
  28.0820000   8.1283000  28.2413000  30.4920000  17.6343000  30.9743000
  29.8180000  17.9373000  31.5823000  30.8780000  18.4373000  30.6243000
  29.7080000   5.1303000  40.4633000  28.7900000   5.3523000  40.3063000
  30.1240000   5.2053000  39.6053000  30.4910000   6.5293000  35.5943000
  31.2380000   7.0413000  35.2843000  30.7600000   6.2083000  36.4543000
  28.7640000   9.0253000  32.5763000  27.8550000   8.7413000  32.6743000
  28.7930000   9.4453000  31.7173000  33.9960000  12.6363000  36.3463000
  33.5420000  11.7953000  36.4023000  33.3650000  13.2723000  36.6833000
  32.4390000  14.4733000  37.2813000  32.7310000  15.0343000  36.5623000
  32.9490000  14.7663000  38.0363000  19.3330000   6.7463000  36.5583000
  19.1350000   6.1533000  35.8333000  18.7770000   6.4413000  37.2763000
  27.3120000   6.6383000  38.6773000  27.3670000   5.6853000  38.6023000
  26.5010000   6.7943000  39.1623000  28.4610000  10.5663000  29.9153000
  28.0230000   9.8503000  29.4563000  29.2030000  10.7943000  29.3543000
  25.2520000   5.2563000  36.4363000  24.4380000   5.5553000  36.8433000
  25.7480000   4.8613000  37.1543000  27.4020000  15.2523000  38.3703000
  27.3600000  15.4783000  37.4413000  28.3190000  15.0183000  38.5183000
  30.8490000   5.7203000  45.2683000  31.2040000   5.9473000  46.1273000
  31.4960000   6.0523000  44.6463000  36.5790000   8.8423000  35.9733000
  36.4410000   9.0323000  35.0453000  36.2220000   9.6043000  36.4303000
  24.7430000   2.8283000  42.0533000  25.3830000   2.6863000  41.3553000
  23.9110000   2.5413000  41.6763000  36.6060000  10.9093000  40.9843000
  37.0390000  10.8173000  41.8323000  37.3190000  10.8853000  40.3463000
  25.5190000  12.1283000  38.1663000  26.3130000  11.6333000  37.9643000
  24.8080000  11.6003000  37.8033000  30.3390000  14.5103000  42.5173000
  30.3920000  15.0793000  43.2853000  29.4700000  14.6803000  42.1533000
  21.8270000   6.2723000  34.2423000  20.8970000   6.2113000  34.4593000
  21.9230000   5.7503000  33.4463000  21.7460000   2.7983000  36.8303000
  22.0070000   3.7123000  36.7213000  22.5680000   2.3303000  36.9803000
  23.2180000   4.2113000  44.0003000  23.8910000   4.0033000  43.3513000
  22.3910000   4.0143000  43.5603000  37.4670000  10.9523000  43.5173000
  37.6610000  11.8563000  43.7633000  37.3670000  10.4933000  44.3513000
  32.5290000  11.1023000  49.0913000  32.3770000  10.8743000  48.1743000
  32.5190000  12.0603000  49.1043000  29.2970000   8.6763000  44.0763000
  30.2270000   8.8273000  43.9033000  28.8760000   8.7643000  43.2213000
  28.0960000  12.7013000  41.8463000  27.9570000  12.3333000  42.7183000
  27.3080000  13.2153000  41.6743000  28.6910000  17.8023000  33.1883000
  28.8660000  17.3303000  34.0033000  28.0040000  18.4283000  33.4173000
  29.6470000  12.0793000  39.2353000  29.3120000  12.0393000  40.1303000
  29.1470000  11.4133000  38.7623000  23.6210000   7.4863000  44.7603000
  23.4830000   6.7543000  45.3613000  24.5320000   7.3973000  44.4783000
  32.5830000   9.4243000  29.5083000  31.9660000   8.6993000  29.4123000
  32.1140000  10.1853000  29.1653000  26.2490000   7.1983000  44.2483000
  26.9590000   6.5573000  44.2073000  26.2060000   7.4493000  45.1713000
  34.2380000  14.1343000  47.1693000  34.1790000  13.4503000  46.5023000
  34.6400000  14.8763000  46.7173000  24.9620000   4.1843000  46.0683000
  24.4260000   3.7333000  46.7203000  24.3740000   4.3193000  45.3253000
  23.2570000  20.9513000  39.9623000  23.4970000  21.5823000  40.6403000
  22.4140000  20.5993000  40.2493000  24.3720000   3.6433000  28.6313000
  23.4950000   3.5223000  28.2673000  24.8480000   2.8523000  28.3783000
  34.2400000  12.0983000  45.4003000  33.3520000  11.7613000  45.5233000
  34.8100000  11.3673000  45.6373000  15.8930000   8.4313000  38.7253000
  16.5800000   8.1173000  38.1373000  15.7370000   9.3353000  38.4513000
  27.7700000  16.7583000  42.3673000  27.6970000  17.5643000  42.8783000
  27.3280000  16.9583000  41.5413000  27.5590000  15.9963000  35.8773000
  26.7760000  16.5383000  35.9713000  28.2580000  16.5133000  36.2763000
  38.7220000   7.5093000  40.1623000  38.7100000   8.3923000  39.7913000
  37.8530000   7.1563000  39.9683000  30.2300000  16.6573000  44.5223000
  30.9430000  17.2923000  44.4503000  29.7390000  16.7543000  43.7063000
  31.9520000  10.5623000  36.0943000  31.0170000  10.6823000  35.9253000
  32.1290000   9.6603000  35.8303000  27.4520000   3.9473000  38.2473000
  27.0820000   3.3943000  38.9353000  27.9480000   3.3433000  37.6953000
  35.3390000   6.4043000  36.6293000  35.8050000   7.2373000  36.5553000
  35.7900000   5.9393000  37.3343000  25.2810000  14.4073000  45.3433000
  25.9820000  15.0403000  45.4963000  24.8100000  14.7483000  44.5823000
  33.4060000  12.7483000  33.6283000  33.6820000  12.6343000  34.5373000
  32.5370000  12.3503000  33.5893000  33.0810000   6.9613000  43.1683000
  32.4280000   7.2093000  42.5133000  33.4590000   6.1473000  42.8343000
  30.0420000  16.9973000  37.2713000  30.2240000  16.1793000  37.7343000
  30.8650000  17.2143000  36.8333000  30.3760000  15.9243000  34.5323000
  30.9050000  15.4133000  33.9203000  30.6390000  15.6083000  35.3973000
  29.1300000   7.7033000  49.6553000  28.4540000   7.6023000  50.3253000
  29.9530000   7.5473000  50.1183000  20.8780000  13.9403000  42.2763000
  21.4630000  13.1953000  42.4093000  20.6800000  14.2513000  43.1603000
  23.7320000  16.9753000  37.2923000  23.0630000  17.4603000  36.8093000
  23.5930000  17.2223000  38.2073000  27.8720000  19.0103000  43.8913000
  28.4240000  19.1733000  44.6553000  28.2130000  19.6003000  43.2193000
  22.3240000   3.4303000  48.1403000  22.9510000   3.0473000  48.7543000
  21.4670000   3.2113000  48.5063000  32.7230000  13.8363000  49.7453000
  33.2670000  14.4493000  49.2513000  32.1420000  14.3943000  50.2623000
  19.1000000   5.2373000  34.0723000  19.3960000   4.3283000  34.0193000
  18.1990000   5.2163000  33.7503000  31.0090000  16.9583000  40.8773000
  30.8840000  16.1573000  40.3683000  31.6670000  17.4533000  40.3883000
  22.6300000   3.3133000  40.0553000  21.9080000   3.9263000  39.9153000
  23.4190000   3.8493000  39.9763000  33.0720000  14.7593000  42.5053000
  32.1250000  14.6393000  42.4333000  33.4210000  13.8713000  42.5873000
  30.0770000  14.5543000  38.7053000  29.9300000  13.6263000  38.8863000
  30.9020000  14.5763000  38.2213000  23.9430000   3.2063000  34.5633000
  24.2830000   3.7353000  33.8413000  24.3910000   3.5443000  35.3393000
  24.8130000   5.3663000  40.2763000  24.6680000   5.6813000  41.1683000
  24.3360000   5.9853000  39.7233000  33.4700000  15.8963000  35.1483000
  33.6440000  15.3303000  34.3953000  33.9630000  16.6963000  34.9663000
  19.2880000   7.9073000  43.2143000  18.7430000   8.6833000  43.3463000
  20.1660000   8.2543000  43.0563000  39.3240000   8.6593000  36.7673000
  39.7670000   7.9103000  36.3693000  38.4470000   8.6503000  36.3843000
  34.4580000  15.2123000  32.2483000  35.1530000  15.8333000  32.4663000
  34.8000000  14.3623000  32.5233000  20.0740000   7.0343000  46.1073000
  19.3320000   7.1823000  46.6943000  19.7540000   7.2953000  45.2443000
  36.3570000  12.6623000  33.7763000  36.8820000  13.0013000  33.0513000
  36.2690000  11.7273000  33.5933000  28.0190000  16.5763000  45.9053000
  28.3270000  16.3313000  46.7783000  28.8160000  16.7803000  45.4173000
  28.0410000  18.7293000  38.1363000  27.6010000  18.2373000  38.8293000
  28.7920000  18.1873000  37.8953000  20.5200000  14.9213000  38.1383000
  21.3460000  14.6213000  37.7583000  20.1690000  14.1513000  38.5873000
  25.4880000  14.2733000  40.2083000  24.8660000  13.6103000  39.9083000
  26.1590000  14.2993000  39.5263000  18.7210000  12.8393000  39.0973000
  17.8840000  12.4113000  38.9163000  18.6930000  13.0323000  40.0343000
  25.5610000   2.7513000  49.8013000  25.6090000   3.6283000  49.4193000
  26.1030000   2.2093000  49.2293000  36.0460000  13.2953000  49.0823000
  35.2560000  13.2783000  48.5423000  35.8090000  13.8343000  49.8363000
  36.1660000  10.1453000  46.3953000  36.2160000   9.9803000  47.3363000
  36.0570000   9.2773000  46.0053000  25.0490000  12.8243000  33.6843000
  25.1980000  13.5073000  33.0313000  25.8560000  12.8043000  34.1993000
  33.4560000   6.1283000  47.7113000  34.3570000   5.9883000  47.4193000
  33.5310000   6.2933000  48.6513000  27.7910000   3.5053000  46.5563000
  26.9210000   3.7983000  46.2843000  28.0260000   4.0893000  47.2773000
  37.6680000  12.5643000  46.6393000  37.3760000  12.9273000  47.4753000
  37.0550000  11.8513000  46.4603000  38.8670000  10.1303000  39.1593000
  39.7020000  10.5693000  39.3233000  39.0030000   9.6543000  38.3403000
  35.9160000   7.6883000  45.1073000  36.3920000   7.8803000  44.2993000
  34.9930000   7.7443000  44.8613000  22.8050000   8.8503000  34.6903000
  22.5590000   7.9463000  34.8883000  22.9740000   8.8523000  33.7483000
  22.0740000   4.5833000  32.1893000  21.3810000   4.6573000  31.5333000
  21.8290000   3.8193000  32.7113000  28.5490000  15.3183000  31.1553000
  27.9760000  15.9373000  30.7023000  29.1220000  15.8683000  31.6893000
  31.7690000  15.6023000  32.2863000  32.7020000  15.5373000  32.4893000
  31.6810000  16.4383000  31.8273000  34.3980000  14.9193000  29.2463000
  34.3190000  14.5853000  30.1403000  35.2190000  15.4113000  29.2463000
  37.0950000   7.7853000  42.4543000  37.0630000   6.8463000  42.6403000
  37.7050000   7.8633000  41.7213000  28.9340000   6.6543000  28.4973000
  29.8800000   6.5253000  28.5663000  28.5550000   5.9163000  28.9743000
  42.9130000   8.8463000  41.5953000  43.6430000   8.5853000  42.1553000
  42.3040000   8.1093000  41.6353000  28.8180000  10.7063000  49.9573000
  29.7380000  10.8843000  50.1513000  28.7830000   9.7623000  49.8053000
  27.1180000   4.5793000  28.4323000  26.2110000   4.2833000  28.5093000
  27.3960000   4.2823000  27.5663000  18.0360000   5.9003000  38.8823000
  17.7160000   5.0473000  38.5903000  17.4890000   6.1153000  39.6383000
  21.8140000   8.6163000  42.5993000  22.0320000   9.5483000  42.6183000
  22.2260000   8.2573000  43.3853000  26.6870000   4.1903000  51.9893000
  26.5860000   5.1393000  51.9213000  26.4690000   3.8613000  51.1173000
  17.9050000   9.5203000  40.8513000  17.2110000   9.1063000  40.3383000
  18.6520000   9.5623000  40.2553000  26.5500000   7.6193000  50.8063000
  26.0660000   8.4193000  51.0123000  26.6360000   7.6303000  49.8533000
  19.8180000   9.4523000  38.7283000  19.7950000   9.5513000  37.7763000
  20.1280000  10.2993000  39.0503000  22.4770000  11.5103000  42.8433000
  23.4310000  11.4783000  42.7763000  22.2780000  11.0493000  43.6583000
  23.0670000  10.0803000  45.4103000  23.8860000  10.5743000  45.4333000
  23.3410000   9.1633000  45.3823000  20.8320000  17.0523000  39.8603000
  20.6980000  16.2923000  39.2943000  20.4150000  17.7763000  39.3933000
  31.9680000  12.2353000  28.8673000  32.6720000  12.4403000  29.4833000
  31.2440000  12.8033000  29.1323000  32.7980000   7.9863000  34.9883000
  32.7410000   8.4433000  34.1483000  33.3510000   7.2263000  34.8103000
  23.9890000  17.9493000  40.0723000  23.8720000  18.8933000  39.9693000
  23.1680000  17.6463000  40.4603000  33.8770000  12.6743000  30.9173000
  34.7110000  12.2423000  30.7353000  33.7150000  12.5023000  31.8453000
  33.5310000   9.1773000  32.2833000  33.4760000   9.0113000  31.3423000
  32.9060000   9.8853000  32.4393000  30.8460000  11.4823000  51.6083000
  31.7150000  11.6563000  51.2473000  30.3660000  12.3013000  51.4863000
  25.0140000  18.6023000  43.2873000  25.9170000  18.6343000  43.6043000
  24.7880000  17.6723000  43.3023000  26.7700000  17.3553000  39.9483000
  25.8190000  17.3553000  39.8353000  27.0730000  16.6083000  39.4323000
  37.0150000  21.9123000  30.2813000  37.2670000  21.3903000  29.5193000
  36.0770000  21.7493000  30.3833000  47.4600000  20.8533000  38.9913000
  48.1930000  20.2833000  39.2253000  46.7040000  20.4663000  39.4323000
  36.7340000  23.8153000  32.4833000  36.6180000  23.1403000  33.1513000
  36.8450000  23.3283000  31.6663000  44.9830000  14.5663000  43.4513000
  44.6510000  15.4353000  43.2273000  44.3870000  14.2493000  44.1303000
  38.7180000  18.3053000  31.1843000  38.8860000  19.1733000  31.5513000
  38.5280000  18.4683000  30.2603000  44.8750000  19.2853000  40.5303000
  43.9670000  19.2173000  40.2363000  44.8240000  19.7623000  41.3583000
  38.6970000  20.7613000  32.1693000  38.5770000  21.2073000  33.0073000
  38.0020000  21.1093000  31.6103000  32.2880000  22.8613000  39.7193000
  32.4170000  23.1153000  40.6323000  31.6080000  23.4543000  39.3993000
  38.9500000  20.7043000  48.4743000  38.1730000  21.2633000  48.4643000
  39.5890000  21.1903000  48.9953000  46.7420000  17.4873000  42.3083000
  46.0990000  17.7803000  41.6623000  46.2370000  17.3723000  43.1133000
  44.3960000  21.2333000  32.9973000  45.3070000  21.4663000  32.8213000
  43.8870000  21.8173000  32.4343000  39.0330000  20.5933000  44.0063000
  39.8790000  21.0173000  44.1503000  38.9730000  19.9363000  44.7003000
  42.1830000  18.2533000  45.6643000  41.9390000  19.0073000  45.1283000
  42.4590000  18.6323000  46.4993000  44.1370000  24.7973000  44.3423000
  44.3480000  25.4403000  43.6653000  44.0900000  23.9633000  43.8743000
  41.7390000  17.4093000  41.2463000  40.8780000  17.7073000  41.5373000
  41.7650000  17.6263000  40.3143000  37.4920000  22.0753000  34.4623000
  38.1950000  22.5273000  34.9293000  37.1600000  21.4343000  35.0903000
  35.9400000  20.6673000  48.8373000  35.3100000  21.3483000  49.0713000
  35.8340000  20.5553000  47.8923000  31.2350000  20.3343000  39.7643000
  30.4450000  20.5893000  39.2883000  31.7260000  21.1493000  39.8693000
  45.2510000  27.6743000  42.5143000  46.0730000  27.2723000  42.2323000
  45.2470000  27.5713000  43.4663000  33.1860000  20.6983000  36.7223000
  32.3890000  20.8103000  37.2403000  32.9590000  21.0373000  35.8563000
  29.5190000  20.5873000  42.1953000  29.7690000  21.4713000  42.4613000
  30.0550000  20.4073000  41.4233000  53.3420000  24.0183000  38.8633000
  52.5880000  23.4493000  38.7073000  53.4770000  23.9843000  39.8103000
  35.2180000  14.9693000  51.2003000  34.8250000  14.4153000  51.8743000
  36.0350000  15.2803000  51.5903000  38.1350000  16.3843000  48.7923000
  38.8760000  16.9853000  48.7123000  38.3670000  15.6423000  48.2333000
  33.2790000  21.5703000  47.0693000  33.1650000  20.6693000  47.3703000
  32.4240000  21.8163000  46.7183000  42.0810000  12.4123000  43.0683000
  41.7370000  13.3033000  42.9923000  42.4490000  12.2233000  42.2053000
  42.0460000  22.4033000  31.5753000  41.5310000  23.1743000  31.8143000
  41.7740000  21.7303000  32.1993000  39.6310000  17.2483000  36.6343000
  38.7750000  16.8593000  36.4543000  40.0430000  17.3283000  35.7743000
  41.1610000  14.7833000  41.0333000  40.6570000  14.7463000  40.2203000
  41.4540000  15.6923000  41.0933000  37.4050000  14.8673000  40.0403000
  38.2700000  14.6713000  39.6803000  37.4730000  14.6383000  40.9663000
  47.0190000  25.1573000  33.5113000  46.2420000  24.8183000  33.0663000
  47.6980000  25.1623000  32.8363000  41.8350000  20.2763000  33.4013000
  41.5300000  20.5913000  34.2523000  42.7880000  20.3543000  33.4443000
  35.0110000  17.0973000  37.4113000  35.5850000  16.8753000  36.6793000
  35.5980000  17.1663000  38.1643000  35.3380000  19.1273000  31.4313000
  34.5020000  19.4653000  31.7523000  35.1980000  18.9923000  30.4933000
  37.3130000  13.9713000  36.1393000  36.6600000  13.6563000  35.5143000
  37.2710000  13.3493000  36.8653000  38.4240000  24.2533000  28.0543000
  37.5170000  24.0223000  28.2533000  38.9220000  23.4573000  28.2413000
  40.5470000  20.4593000  40.4633000  39.6290000  20.6813000  40.3063000
  40.9630000  20.5343000  39.6053000  41.3310000  21.8593000  35.5943000
  42.0780000  22.3713000  35.2843000  41.6000000  21.5373000  36.4543000
  43.7780000  18.8943000  37.5763000  43.0410000  18.3823000  37.9073000
  44.0310000  18.4543000  36.7643000  43.8800000  11.6723000  38.1703000
  44.1860000  10.8123000  37.8823000  44.6050000  12.2643000  37.9703000
  30.1720000  22.0753000  36.5583000  29.9750000  21.4823000  35.8333000
  29.6170000  21.7703000  37.2763000  36.0910000  20.5853000  36.4363000
  35.2780000  20.8843000  36.8433000  36.5870000  20.1913000  37.1543000
  41.6880000  21.0493000  45.2683000  42.0430000  21.2763000  46.1273000
  42.3360000  21.3813000  44.6463000  47.4180000  24.1713000  35.9733000
  47.2800000  24.3613000  35.0453000  47.0620000  24.9333000  36.4303000
  35.5820000  18.1573000  42.0533000  36.2220000  18.0163000  41.3553000
  34.7500000  17.8703000  41.6763000  47.4450000  26.2393000  40.9843000
  47.8790000  26.1463000  41.8323000  48.1580000  26.2143000  40.3463000
  32.6670000  21.6013000  34.2423000  31.7360000  21.5403000  34.4593000
  32.7620000  21.0793000  33.4463000  32.5850000  18.1273000  36.8303000
  32.8460000  19.0413000  36.7213000  33.4070000  17.6593000  36.9803000
  34.0580000  19.5413000  44.0003000  34.7300000  19.3323000  43.3513000
  33.2310000  19.3433000  43.5603000  48.3070000  26.2813000  43.5173000
  48.5000000  27.1863000  43.7633000  48.2070000  25.8223000  44.3513000
  39.9600000  16.1673000  46.0163000  39.3130000  16.8663000  45.9233000
  40.7300000  16.6003000  46.3843000  43.3680000  26.4323000  49.0913000
  43.2170000  26.2033000  48.1743000  43.3590000  27.3893000  49.1043000
  34.4600000  22.8153000  44.7603000  34.3220000  22.0833000  45.3613000
  35.3710000  22.7263000  44.4783000  35.8020000  19.5133000  46.0683000
  35.2650000  19.0623000  46.7203000  35.2130000  19.6483000  45.3253000
  35.2120000  18.9723000  28.6313000  34.3350000  18.8513000  28.2673000
  35.6880000  18.1813000  28.3783000  26.7320000  23.7603000  38.7253000
  27.4190000  23.4463000  38.1373000  26.5770000  24.6643000  38.4513000
  31.5360000  18.6493000  43.1533000  31.4510000  18.0423000  42.4183000
  30.7140000  19.1403000  43.1543000  41.7080000  17.1343000  38.5203000
  42.2050000  16.3813000  38.2003000  40.9370000  17.1713000  37.9553000
  49.5610000  22.8383000  40.1623000  49.5500000  23.7213000  39.7913000
  48.6930000  22.4863000  39.9683000  38.2910000  19.2763000  38.2473000
  37.9210000  18.7233000  38.9353000  38.7870000  18.6723000  37.6953000
  46.1780000  21.7333000  36.6293000  46.6440000  22.5663000  36.5553000
  46.6290000  21.2683000  37.3343000  44.1500000  14.1013000  40.6683000
  43.2360000  14.3323000  40.8363000  44.5790000  14.1853000  41.5203000
  43.9200000  22.2903000  43.1683000  43.2680000  22.5383000  42.5133000
  44.2980000  21.4773000  42.8343000  39.9690000  23.0323000  49.6553000
  39.2930000  22.9323000  50.3253000  40.7920000  22.8763000  50.1183000
  26.3090000  21.8403000  40.9963000  26.3470000  21.3063000  41.7903000
  25.8030000  21.3143000  40.3783000  33.6880000  16.6863000  44.4933000
  33.7520000  17.5483000  44.0803000  33.6250000  16.0743000  43.7603000
  33.1630000  18.7593000  48.1403000  33.7900000  18.3763000  48.7543000
  32.3060000  18.5403000  48.5063000  43.5630000  29.1653000  49.7453000
  44.1070000  29.7783000  49.2513000  42.9810000  29.7233000  50.2623000
  29.9400000  20.5663000  34.0723000  30.2350000  19.6573000  34.0193000
  29.0390000  20.5453000  33.7503000  33.4690000  18.6423000  40.0553000
  32.7480000  19.2563000  39.9153000  34.2580000  19.1783000  39.9763000
  36.2720000  15.9773000  46.3293000  36.7950000  16.2243000  47.0913000
  36.0530000  16.8093000  45.9093000  31.6690000  18.2483000  34.1963000
  31.3400000  17.3683000  34.0133000  32.0220000  18.1933000  35.0833000
  34.7830000  18.5353000  34.5633000  35.1220000  19.0643000  33.8413000
  35.2300000  18.8733000  35.3393000  37.4770000  16.9193000  44.0143000
  37.1370000  16.1203000  44.4163000  36.7710000  17.2193000  43.4413000
  38.1290000  14.0043000  42.4663000  38.9510000  13.5303000  42.3443000
  38.3720000  14.7833000  42.9663000  36.7690000  17.0333000  32.7633000
  37.4900000  17.4113000  32.2593000  36.1460000  17.7513000  32.8663000
  40.9130000  17.7373000  33.6983000  41.1290000  18.6203000  33.3973000
  40.4320000  17.3463000  32.9693000  35.6530000  20.6963000  40.2763000
  35.5070000  21.0103000  41.1683000  35.1750000  21.3143000  39.7233000
  37.5120000  17.6863000  40.3243000  37.4980000  16.7903000  39.9873000
  38.2290000  17.6933000  40.9573000  39.3650000  18.1203000  42.3693000
  39.1070000  19.0413000  42.3673000  38.8330000  17.7233000  43.0593000
  30.1270000  23.2363000  43.2143000  29.5820000  24.0123000  43.3463000
  31.0050000  23.5833000  43.0563000  36.9160000  16.5673000  35.5923000
  37.0370000  15.6393000  35.7923000  36.6260000  16.5813000  34.6803000
  39.7850000  14.2533000  38.7293000  39.8070000  14.3173000  37.7743000
  40.2020000  13.4133000  38.9233000  50.1630000  23.9883000  36.7673000
  50.6060000  23.2393000  36.3693000  49.2860000  23.9793000  36.3843000
  30.9140000  22.3633000  46.1073000  30.1720000  22.5113000  46.6943000
  30.5930000  22.6243000  45.2443000  36.4000000  18.0813000  49.8013000
  36.4490000  18.9573000  49.4193000  36.9420000  17.5383000  49.2293000
  46.8850000  28.6253000  49.0823000  46.0950000  28.6073000  48.5423000
  46.6490000  29.1633000  49.8363000  47.0050000  25.4743000  46.3953000
  47.0550000  25.3093000  47.3363000  46.8970000  24.6073000  46.0053000
  44.2960000  21.4573000  47.7113000  45.1970000  21.3183000  47.4193000
  44.3700000  21.6223000  48.6513000  38.6300000  18.8343000  46.5563000
  37.7600000  19.1273000  46.2843000  38.8660000  19.4183000  47.2773000
  48.5070000  27.8943000  46.6393000  48.2160000  28.2573000  47.4753000
  47.8940000  27.1803000  46.4603000  49.7070000  25.4593000  39.1593000
  50.5410000  25.8983000  39.3233000  49.8430000  24.9833000  38.3403000
  46.7560000  23.0173000  45.1073000  47.2310000  23.2103000  44.2993000
  45.8320000  23.0733000  44.8613000  33.6440000  24.1793000  34.6903000
  33.3990000  23.2763000  34.8883000  33.8140000  24.1813000  33.7483000
  41.3340000  15.0523000  44.0733000  41.8520000  15.7883000  43.7473000
  40.9790000  15.3583000  44.9073000  32.9140000  19.9123000  32.1893000
  32.2210000  19.9873000  31.5333000  32.6690000  19.1483000  32.7113000
  41.5850000  11.4723000  39.5933000  41.8650000  10.8043000  40.2193000
  42.3700000  11.6653000  39.0803000  45.4560000  19.8933000  43.3403000
  46.4080000  19.9933000  43.3613000  45.2860000  19.1013000  43.8503000
  43.4770000  16.9793000  43.5263000  42.8820000  17.2603000  42.8303000
  43.1920000  17.4683000  44.2973000  47.9350000  23.1143000  42.4543000
  47.9020000  22.1763000  42.6403000  48.5450000  23.1923000  41.7213000
  39.7730000  21.9843000  28.4973000  40.7190000  21.8543000  28.5663000
  39.3950000  21.2453000  28.9743000  48.0840000  19.9053000  42.5003000
  47.5680000  19.1213000  42.3133000  48.9680000  19.5773000  42.6653000
  45.7450000  13.6493000  38.4593000  45.5480000  13.3413000  39.3443000
  46.3550000  14.3753000  38.5893000  53.7520000  24.1763000  41.5953000
  54.4830000  23.9143000  42.1553000  53.1430000  23.4393000  41.6353000
  51.8340000  22.3163000  42.1923000  51.1070000  22.1823000  41.5843000
  51.4190000  22.6243000  42.9983000  37.9570000  19.9093000  28.4323000
  37.0510000  19.6123000  28.5093000  38.2350000  19.6123000  27.5663000
  28.8750000  21.2293000  38.8823000  28.5550000  20.3763000  38.5903000
  28.3290000  21.4443000  39.6383000  32.6530000  23.9463000  42.5993000
  32.8720000  24.8773000  42.6183000  33.0660000  23.5863000  43.3853000
  39.5740000  14.4523000  34.5873000  38.7640000  14.1073000  34.9623000
  40.2620000  14.1433000  35.1753000  41.5030000  13.5303000  36.2093000
  42.0560000  13.9503000  36.8683000  41.7400000  12.6043000  36.2513000
  37.5260000  19.5193000  51.9893000  37.4260000  20.4683000  51.9213000
  37.3080000  19.1913000  51.1173000  36.7270000  16.7673000  28.5733000
  37.5890000  17.0933000  28.8333000  36.9120000  15.9813000  28.0613000
  44.8810000  15.6403000  35.7173000  44.3000000  16.2993000  35.3353000
  44.6140000  14.8183000  35.3063000  43.3310000  15.0413000  37.9193000
  43.8310000  15.1523000  37.1113000  43.9740000  14.7373000  38.5593000
  37.3890000  22.9493000  50.8063000  36.9060000  23.7493000  51.0123000
  37.4750000  22.9593000  49.8533000  43.6630000  17.8003000  34.7733000
  42.7760000  18.0853000  34.5553000  44.0780000  17.6403000  33.9253000
  47.0140000  17.8253000  38.4883000  47.7910000  18.3153000  38.7613000
  46.2890000  18.2513000  38.9453000  49.4520000  18.5383000  39.5453000
  50.0460000  18.2973000  38.8353000  49.5240000  17.8183000  40.1733000
  47.4480000  19.1053000  35.8133000  47.1910000  18.7043000  36.6433000
  46.8230000  19.8193000  35.6883000  51.7590000  21.8443000  38.3203000
  51.1990000  21.9143000  39.0933000  51.1530000  21.6683000  37.6003000
  44.3710000  24.5063000  32.2833000  44.3150000  24.3413000  31.3423000
  43.7450000  25.2143000  32.4393000  29.1600000  19.7433000  46.1093000
  29.8060000  19.2333000  46.5983000  28.9520000  20.4803000  46.6833000
  41.6850000  26.8113000  51.6083000  42.5540000  26.9853000  51.2473000
  41.2060000  27.6303000  51.4863000  37.6800000  14.0073000  31.8613000
  37.6680000  14.9513000  32.0183000  38.5730000  13.8243000  31.5673000
  41.4950000  10.6013000  36.1163000  40.7290000  10.0473000  36.2623000
  41.9060000  10.6733000  36.9773000  33.5000000  16.8903000  50.2073000
  34.3630000  16.5333000  50.4173000  32.9260000  16.5513000  50.8943000
  50.6350000  39.6263000  46.9083000  50.6240000  39.2313000  46.0363000
  50.7970000  38.8933000  47.5013000  51.5920000  43.9933000  32.2503000
  50.9410000  44.5793000  31.8633000  52.3860000  44.5243000  32.3103000
  53.0700000  41.6823000  32.7873000  52.4340000  41.7563000  33.4993000
  52.7390000  42.2723000  32.1093000  58.2990000  36.1833000  38.9913000
  59.0320000  35.6123000  39.2253000  57.5430000  35.7953000  39.4323000
  55.8220000  29.8953000  43.4513000  55.4900000  30.7643000  43.2273000
  55.2260000  29.5783000  44.1303000  52.3150000  42.0963000  42.8503000
  52.0150000  42.9983000  42.7423000  51.9700000  41.8293000  43.7033000
  55.7150000  34.6143000  40.5303000  54.8060000  34.5463000  40.2363000
  55.6640000  35.0913000  41.3583000  49.7890000  36.0333000  48.4743000
  49.0120000  36.5933000  48.4643000  50.4280000  36.5193000  48.9953000
  57.5810000  32.8163000  42.3083000  56.9380000  33.1093000  41.6623000
  57.0760000  32.7013000  43.1133000  55.2350000  36.5623000  32.9973000
  56.1470000  36.7953000  32.8213000  54.7260000  37.1463000  32.4343000
  48.0440000  38.8423000  48.0353000  48.7850000  39.3803000  47.7593000
  47.3370000  39.4683000  48.1933000  53.5190000  40.9853000  46.6333000
  53.9270000  40.5433000  45.8883000  52.7970000  40.4103000  46.8863000
  57.7210000  42.4803000  37.7423000  57.0360000  42.8603000  37.1923000
  57.8050000  43.0903000  38.4763000  53.0220000  33.5823000  45.6643000
  52.7780000  34.3373000  45.1283000  53.2980000  33.9613000  46.4993000
  54.9760000  40.1263000  44.3423000  55.1880000  40.7693000  43.6653000
  54.9290000  39.2923000  43.8743000  52.5790000  32.7383000  41.2463000
  51.7170000  33.0363000  41.5373000  52.6050000  32.9553000  40.3143000
  46.7800000  35.9963000  48.8373000  46.1500000  36.6773000  49.0713000
  46.6730000  35.8843000  47.8923000  56.0910000  43.0033000  42.5143000
  56.9120000  42.6013000  42.2323000  56.0870000  42.9003000  43.4663000
  49.8560000  42.5523000  44.6703000  49.9210000  43.0143000  45.5063000
  49.1470000  41.9223000  44.7983000  64.1810000  39.3473000  38.8633000
  63.4280000  38.7783000  38.7073000  64.3160000  39.3143000  39.8103000
  46.0580000  30.2983000  51.2003000  45.6640000  29.7443000  51.8743000
  46.8740000  30.6093000  51.5903000  48.9750000  31.7143000  48.7923000
  49.7160000  32.3143000  48.7123000  49.2060000  30.9713000  48.2333000
  51.1980000  44.8413000  48.6683000  50.7540000  44.0553000  48.3503000
  51.8600000  45.0293000  48.0033000  53.2960000  45.1213000  46.6963000
  53.2780000  45.9423000  46.2043000  54.2180000  44.9973000  46.9213000
  49.7530000  42.6363000  47.5393000  50.2860000  41.8753000  47.3093000
  49.2250000  42.3433000  48.2813000  52.9200000  27.7423000  43.0683000
  52.5770000  28.6323000  42.9923000  53.2880000  27.5523000  42.2053000
  52.8850000  37.7333000  31.5753000  52.3700000  38.5033000  31.8143000
  52.6130000  37.0593000  32.1993000  57.8590000  40.4863000  33.5113000
  57.0820000  40.1473000  33.0663000  58.5380000  40.4913000  32.8363000
  56.0980000  39.9593000  40.1673000  55.4400000  40.6493000  40.2553000
  56.9020000  40.3493000  40.5113000  54.9080000  38.3143000  38.2183000
  55.4220000  38.9473000  38.7203000  55.5590000  37.7143000  37.8523000
  52.1710000  48.2923000  30.9743000  51.4970000  48.5953000  31.5823000
  52.5570000  49.0953000  30.6243000  55.6750000  43.2943000  36.3463000
  55.2210000  42.4533000  36.4023000  55.0440000  43.9303000  36.6833000
  54.6180000  34.2233000  37.5763000  53.8800000  33.7113000  37.9073000
  54.8710000  33.7833000  36.7643000  54.1180000  45.1323000  37.2813000
  54.4100000  45.6923000  36.5623000  54.6280000  45.4253000  38.0363000
  54.7190000  27.0013000  38.1703000  55.0250000  26.1413000  37.8823000
  55.4440000  27.5933000  37.9703000  49.0810000  45.9103000  38.3703000
  49.0390000  46.1363000  37.4413000  49.9970000  45.6763000  38.5183000
  52.5280000  36.3783000  45.2683000  52.8830000  36.6053000  46.1273000
  53.1750000  36.7103000  44.6463000  58.2580000  39.5003000  35.9733000
  58.1190000  39.6903000  35.0453000  57.9010000  40.2623000  36.4303000
  58.2840000  41.5683000  40.9843000  58.7180000  41.4753000  41.8323000
  58.9980000  41.5443000  40.3463000  52.0170000  45.1683000  42.5173000
  52.0710000  45.7373000  43.2853000  51.1490000  45.3383000  42.1533000
  59.1460000  41.6103000  43.5173000  59.3400000  42.5153000  43.7633000
  59.0460000  41.1513000  44.3513000  50.8000000  31.4963000  46.0163000
  50.1520000  32.1953000  45.9233000  51.5700000  31.9303000  46.3843000
  54.2080000  41.7613000  49.0913000  54.0560000  41.5323000  48.1743000
  54.1980000  42.7183000  49.1043000  50.9760000  39.3343000  44.0763000
  51.9050000  39.4853000  43.9033000  50.5550000  39.4223000  43.2213000
  49.7750000  43.3593000  41.8463000  49.6360000  42.9913000  42.7183000
  48.9860000  43.8743000  41.6743000  50.3700000  48.4603000  33.1883000
  50.5450000  47.9893000  34.0033000  49.6830000  49.0873000  33.4173000
  54.2610000  40.0833000  29.5083000  53.6440000  39.3583000  29.4123000
  53.7930000  40.8443000  29.1653000  55.9170000  44.7933000  47.1693000
  55.8580000  44.1093000  46.5023000  56.3190000  45.5353000  46.7173000
  55.9190000  42.7573000  45.4003000  55.0310000  42.4193000  45.5233000
  56.4880000  42.0253000  45.6373000  49.4490000  47.4173000  42.3673000
  49.3760000  48.2223000  42.8783000  49.0060000  47.6163000  41.5413000
  49.2380000  46.6543000  35.8773000  48.4540000  47.1963000  35.9713000
  49.9370000  47.1713000  36.2763000  52.5470000  32.4643000  38.5203000
  53.0440000  31.7113000  38.2003000  51.7760000  32.5003000  37.9553000
  60.4000000  38.1683000  40.1623000  60.3890000  39.0503000  39.7913000
  59.5320000  37.8153000  39.9683000  51.9090000  47.3163000  44.5223000
  52.6210000  47.9503000  44.4503000  51.4180000  47.4123000  43.7063000
  57.0180000  37.0623000  36.6293000  57.4840000  37.8953000  36.5553000
  57.4680000  36.5973000  37.3343000  55.0850000  43.4073000  33.6283000
  55.3610000  43.2923000  34.5373000  54.2160000  43.0093000  33.5893000
  54.9890000  29.4303000  40.6683000  54.0750000  29.6613000  40.8363000
  55.4180000  29.5143000  41.5203000  54.7600000  37.6193000  43.1683000
  54.1070000  37.8673000  42.5133000  55.1380000  36.8063000  42.8343000
  51.7210000  47.6553000  37.2713000  51.9030000  46.8383000  37.7343000
  52.5440000  47.8723000  36.8333000  52.0550000  46.5823000  34.5323000
  52.5840000  46.0713000  33.9203000  52.3180000  46.2663000  35.3973000
  50.8090000  38.3613000  49.6553000  50.1330000  38.2613000  50.3253000
  51.6310000  38.2053000  50.1183000  49.5510000  49.6683000  43.8913000
  50.1030000  49.8313000  44.6553000  49.8910000  50.2593000  43.2193000
  54.4020000  44.4943000  49.7453000  54.9460000  45.1073000  49.2513000
  53.8210000  45.0523000  50.2623000  52.6880000  47.6163000  40.8773000
  52.5630000  46.8153000  40.3683000  53.3460000  48.1113000  40.3883000
  54.7510000  45.4173000  42.5053000  53.8040000  45.2983000  42.4333000
  55.0990000  44.5293000  42.5873000  47.1110000  31.3073000  46.3293000
  47.6350000  31.5533000  47.0913000  46.8920000  32.1393000  45.9093000
  51.7560000  45.2123000  38.7053000  51.6080000  44.2843000  38.8863000
  52.5810000  45.2353000  38.2213000  55.3590000  46.0353000  39.7923000
  56.2840000  45.8303000  39.6543000  55.1910000  45.7873000  40.7013000
  48.9680000  29.3333000  42.4663000  49.7910000  28.8593000  42.3443000
  49.2120000  30.1123000  42.9663000  55.1490000  46.5543000  35.1483000
  55.3220000  45.9893000  34.3953000  55.6420000  47.3543000  34.9663000
  50.6240000  29.5823000  38.7293000  50.6470000  29.6463000  37.7743000
  51.0410000  28.7423000  38.9233000  61.0030000  39.3183000  36.7673000
  61.4460000  38.5683000  36.3693000  60.1250000  39.3093000  36.3843000
  56.1360000  45.8713000  32.2483000  56.8310000  46.4913000  32.4663000
  56.4790000  45.0203000  32.5233000  58.0350000  43.3213000  33.7763000
  58.5610000  43.6593000  33.0513000  57.9480000  42.3853000  33.5933000
  49.6970000  47.2343000  45.9053000  50.0060000  46.9893000  46.7783000
  50.4950000  47.4393000  45.4173000  49.7200000  49.3883000  38.1363000
  49.2800000  48.8953000  38.8293000  50.4700000  48.8453000  37.8953000
  47.2390000  33.4103000  49.8013000  47.2880000  34.2863000  49.4193000
  47.7820000  32.8673000  49.2293000  57.7250000  43.9543000  49.0823000
  56.9340000  43.9363000  48.5423000  57.4880000  44.4933000  49.8363000
  57.8450000  40.8033000  46.3953000  57.8940000  40.6383000  47.3363000
  57.7360000  39.9363000  46.0053000  55.1350000  36.7863000  47.7113000
  56.0360000  36.6473000  47.4193000  55.2100000  36.9523000  48.6513000
  49.4690000  34.1633000  46.5563000  48.6000000  34.4563000  46.2843000
  49.7050000  34.7473000  47.2773000  59.3460000  43.2233000  46.6393000
  59.0550000  43.5863000  47.4753000  58.7340000  42.5103000  46.4603000
  60.5460000  40.7883000  39.1593000  61.3810000  41.2273000  39.3233000
  60.6820000  40.3123000  38.3403000  57.5950000  38.3463000  45.1073000
  58.0710000  38.5393000  44.2993000  56.6720000  38.4023000  44.8613000
  52.1730000  30.3813000  44.0733000  52.6910000  31.1173000  43.7473000
  51.8190000  30.6873000  44.9073000  52.4240000  26.8013000  39.5933000
  52.7050000  26.1333000  40.2193000  53.2090000  26.9943000  39.0803000
  56.2950000  35.2233000  43.3403000  57.2470000  35.3223000  43.3613000
  56.1260000  34.4303000  43.8503000  54.3170000  32.3083000  43.5263000
  53.7220000  32.5893000  42.8303000  54.0320000  32.7983000  44.2973000
  53.4480000  46.2603000  32.2863000  54.3810000  46.1953000  32.4893000
  53.3600000  47.0963000  31.8273000  56.0760000  45.5773000  29.2463000
  55.9980000  45.2433000  30.1403000  56.8970000  46.0693000  29.2463000
  58.7740000  38.4433000  42.4543000  58.7420000  37.5053000  42.6403000
  59.3840000  38.5223000  41.7213000  58.9240000  35.2343000  42.5003000
  58.4070000  34.4503000  42.3133000  59.8080000  34.9063000  42.6653000
  56.5850000  28.9783000  38.4593000  56.3870000  28.6703000  39.3443000
  57.1950000  29.7053000  38.5893000  64.5920000  39.5053000  41.5953000
  65.3220000  39.2433000  42.1553000  63.9820000  38.7683000  41.6353000
  62.6730000  37.6463000  42.1923000  61.9470000  37.5113000  41.5843000
  62.2580000  37.9533000  42.9983000  50.4960000  41.3653000  49.9573000
  51.4170000  41.5423000  50.1513000  50.4610000  40.4203000  49.8053000
  52.3420000  28.8593000  36.2093000  52.8950000  29.2793000  36.8683000
  52.5790000  27.9333000  36.2513000  48.3650000  34.8483000  51.9893000
  48.2650000  35.7973000  51.9213000  48.1470000  34.5203000  51.1173000
  55.7200000  30.9693000  35.7173000  55.1400000  31.6283000  35.3353000
  55.4530000  30.1473000  35.3063000  54.1700000  30.3703000  37.9193000
  54.6700000  30.4823000  37.1113000  54.8140000  30.0663000  38.5593000
  48.2280000  38.2783000  50.8063000  47.7450000  39.0783000  51.0123000
  48.3150000  38.2893000  49.8533000  54.5020000  33.1293000  34.7733000
  53.6150000  33.4143000  34.5553000  54.9180000  32.9693000  33.9253000
  57.8540000  33.1543000  38.4883000  58.6300000  33.6443000  38.7613000
  57.1290000  33.5803000  38.9453000  60.2910000  33.8673000  39.5453000
  60.8860000  33.6263000  38.8353000  60.3640000  33.1483000  40.1733000
  53.6470000  42.8943000  28.8673000  54.3500000  43.0993000  29.4833000
  52.9230000  43.4623000  29.1323000  54.4760000  38.6453000  34.9883000
  54.4200000  39.1023000  34.1483000  55.0290000  37.8843000  34.8103000
  58.2870000  34.4343000  35.8133000  58.0310000  34.0333000  36.6433000
  57.6620000  35.1483000  35.6883000  62.5980000  37.1733000  38.3203000
  62.0380000  37.2433000  39.0933000  61.9930000  36.9983000  37.6003000
  55.5550000  43.3323000  30.9173000  56.3900000  42.9003000  30.7353000
  55.3940000  43.1603000  31.8453000  55.2100000  39.8353000  32.2833000
  55.1550000  39.6703000  31.3423000  54.5850000  40.5433000  32.4393000
  52.5250000  42.1403000  51.6083000  53.3940000  42.3143000  51.2473000
  52.0450000  42.9603000  51.4863000  48.4490000  48.0133000  39.9483000
  47.4980000  48.0133000  39.8353000  48.7520000  47.2663000  39.4323000
  52.3350000  25.9303000  36.1163000  51.5680000  25.3763000  36.2623000
  52.7460000  26.0033000  36.9773000  44.3390000  32.2193000  50.2073000
  45.2020000  31.8633000  50.4173000  43.7660000  31.8803000  50.8943000
  64.1840000  53.8493000  41.0133000  64.8220000  53.7303000  40.3093000
  64.0660000  54.7973000  41.0723000  60.9930000  53.8023000  40.9493000
  60.6550000  53.6863000  40.0613000  61.8620000  53.4013000  40.9293000
  56.8510000  55.6553000  36.9393000  56.2880000  55.5643000  36.1703000
  56.7370000  54.8353000  37.4193000  61.4750000  54.9553000  46.9083000
  61.4640000  54.5613000  46.0363000  61.6370000  54.2223000  47.5013000
  54.3980000  57.1513000  39.7773000  55.1900000  56.8103000  39.3623000
  54.6380000  57.2603000  40.6973000  62.4310000  59.3223000  32.2503000
  61.7800000  59.9083000  31.8633000  63.2260000  59.8533000  32.3103000
  56.3570000  56.4113000  32.6493000  57.1300000  55.8643000  32.5103000
  56.7100000  57.2763000  32.8603000  58.1950000  57.7393000  45.8553000
  57.9040000  58.6443000  45.7403000  58.8310000  57.7813000  46.5703000
  59.1210000  55.1173000  42.4463000  59.7170000  54.8923000  41.7313000
  59.1790000  54.3753000  43.0483000  58.6940000  52.5713000  30.2813000
  58.9460000  52.0493000  29.5193000  57.7560000  52.4073000  30.3833000
  63.7380000  51.5743000  38.0883000  64.5240000  51.1563000  37.7373000
  64.0020000  52.4793000  38.2563000  63.9090000  57.0123000  32.7873000
  63.2740000  57.0853000  33.4993000  63.5790000  57.6013000  32.1093000
  58.4130000  54.4733000  32.4833000  58.2970000  53.7983000  33.1513000
  58.5230000  53.9873000  31.6663000  60.7560000  53.9343000  36.1883000
  60.3920000  53.4083000  36.8993000  61.6130000  53.5443000  36.0143000
  60.3970000  48.9633000  31.1843000  60.5640000  49.8323000  31.5513000
  60.2070000  49.1263000  30.2603000  63.1540000  57.4253000  42.8503000
  62.8550000  58.3283000  42.7423000  62.8100000  57.1583000  43.7033000
  56.6060000  53.8773000  38.8843000  55.6810000  53.7443000  39.0923000
  56.8540000  54.6563000  39.3813000  60.3760000  51.4193000  32.1693000
  60.2560000  51.8653000  33.0073000  59.6810000  51.7683000  31.6103000
  53.9670000  53.5203000  39.7193000  54.0960000  53.7733000  40.6323000
  53.2860000  54.1133000  39.3993000  58.1370000  64.1903000  35.8183000
  58.0590000  65.1403000  35.8963000  57.5330000  63.8443000  36.4753000
  60.6280000  51.3623000  48.4743000  59.8520000  51.9223000  48.4643000
  61.2670000  51.8483000  48.9953000  58.8830000  54.1713000  48.0353000
  59.6240000  54.7093000  47.7593000  58.1770000  54.7983000  48.1933000
  64.3580000  56.3143000  46.6333000  64.7670000  55.8723000  45.8883000
  63.6360000  55.7393000  46.8863000  60.7120000  51.2513000  44.0063000
  61.5580000  51.6753000  44.1503000  60.6510000  50.5943000  44.7003000
  64.6810000  56.8743000  40.3883000  64.0520000  57.0393000  39.6863000
  64.2940000  57.2883000  41.1593000  63.8610000  48.9123000  45.6643000
  63.6180000  49.6663000  45.1283000  64.1370000  49.2903000  46.4993000
  65.8150000  55.4553000  44.3423000  66.0270000  56.0993000  43.6653000
  65.7680000  54.6223000  43.8743000  63.4180000  48.0673000  41.2463000
  62.5560000  48.3653000  41.5373000  63.4440000  48.2843000  40.3143000
  60.2340000  56.6113000  37.6533000  60.6980000  56.8903000  36.8633000
  59.9700000  55.7103000  37.4703000  57.1270000  56.1593000  40.5913000
  57.6970000  56.5873000  39.9533000  57.7170000  55.8773000  41.2893000
  59.1710000  52.7343000  34.4623000  59.8730000  53.1863000  34.9293000
  58.8390000  52.0923000  35.0903000  57.6190000  51.3253000  48.8373000
  56.9890000  52.0073000  49.0713000  57.5130000  51.2133000  47.8923000
  52.9140000  50.9923000  39.7643000  52.1230000  51.2483000  39.2883000
  53.4050000  51.8073000  39.8693000  54.8650000  51.3573000  36.7223000
  54.0680000  51.4683000  37.2403000  54.6380000  51.6953000  35.8563000
  60.6960000  57.8813000  44.6703000  60.7600000  58.3433000  45.5063000
  59.9870000  57.2513000  44.7983000  51.1970000  51.2453000  42.1953000
  51.4480000  52.1303000  42.4613000  51.7330000  51.0663000  41.4233000
  60.4100000  59.5483000  34.5383000  60.2750000  60.3933000  34.9673000
  60.9510000  59.7503000  33.7753000  56.8970000  45.6273000  51.2003000
  56.5040000  45.0743000  51.8743000  57.7140000  45.9383000  51.5903000
  53.8630000  57.0653000  35.1113000  54.3760000  57.8603000  35.2613000
  54.5160000  56.3683000  35.0443000  55.6730000  60.1823000  37.1933000
  55.8490000  61.1043000  37.0053000  56.4680000  59.8683000  37.6233000
  59.8140000  47.0433000  48.7923000  60.5550000  47.6433000  48.7123000
  60.0460000  46.3013000  48.2333000  54.9580000  52.2283000  47.0693000
  54.8430000  51.3273000  47.3703000  54.1020000  52.4753000  46.7183000
  62.0370000  60.1703000  48.6683000  61.5940000  59.3843000  48.3503000
  62.6990000  60.3583000  48.0033000  56.7960000  61.7003000  43.1943000
  57.3470000  61.5713000  42.4223000  55.9570000  61.9993000  42.8443000
  64.1350000  60.4503000  46.6963000  64.1170000  61.2713000  46.2043000
  65.0570000  60.3263000  46.9213000  60.5930000  57.9653000  47.5393000
  61.1250000  57.2043000  47.3093000  60.0640000  57.6723000  48.2813000
  63.7600000  43.0713000  43.0683000  63.4160000  43.9613000  42.9923000
  64.1280000  42.8813000  42.2053000  51.8280000  55.3943000  35.8873000
  52.6660000  55.8043000  35.6703000  52.0060000  54.4543000  35.8573000
  63.7250000  53.0623000  31.5753000  63.2090000  53.8323000  31.8143000
  63.4520000  52.3883000  32.1993000  61.3090000  47.9073000  36.6343000
  60.4540000  47.5173000  36.4543000  61.7220000  47.9863000  35.7743000
  62.8390000  45.4413000  41.0333000  62.3360000  45.4043000  40.2203000
  63.1320000  46.3513000  41.0933000  59.0840000  45.5253000  40.0403000
  59.9490000  45.3293000  39.6803000  59.1510000  45.2963000  40.9663000
  63.5130000  50.9343000  33.4013000  63.2080000  51.2493000  34.2523000
  64.4660000  51.0133000  33.4443000  61.9580000  57.0933000  35.0513000
  61.4300000  56.3593000  34.7383000  61.4570000  57.8713000  34.8053000
  56.6900000  47.7553000  37.4113000  57.2640000  47.5333000  36.6793000
  57.2770000  47.8243000  38.1643000  57.0170000  49.7863000  31.4313000
  56.1800000  50.1233000  31.7523000  56.8770000  49.6513000  30.4933000
  58.9920000  44.6303000  36.1393000  58.3390000  44.3143000  35.5143000
  58.9500000  44.0073000  36.8653000  60.1030000  54.9113000  28.0543000
  59.1960000  54.6803000  28.2533000  60.6000000  54.1153000  28.2413000
  62.2260000  51.1183000  40.4633000  61.3080000  51.3393000  40.3063000
  62.6420000  51.1923000  39.6053000  63.0090000  52.5173000  35.5943000
  63.7570000  53.0293000  35.2843000  63.2790000  52.1953000  36.4543000
  61.2820000  55.0133000  32.5763000  60.3730000  54.7293000  32.6743000
  61.3120000  55.4333000  31.7173000  65.4570000  49.5533000  37.5763000
  64.7200000  49.0403000  37.9073000  65.7100000  49.1133000  36.7643000
  64.9570000  60.4613000  37.2813000  65.2500000  61.0223000  36.5623000
  65.4670000  60.7543000  38.0363000  51.8510000  52.7333000  36.5583000
  51.6530000  52.1403000  35.8333000  51.2950000  52.4293000  37.2763000
  59.8310000  52.6263000  38.6773000  59.8850000  51.6733000  38.6023000
  59.0200000  52.7823000  39.1623000  60.9800000  56.5543000  29.9153000
  60.5420000  55.8373000  29.4563000  61.7210000  56.7813000  29.3543000
  57.7700000  51.2433000  36.4363000  56.9570000  51.5433000  36.8433000
  58.2660000  50.8493000  37.1543000  59.9210000  61.2393000  38.3703000
  59.8780000  61.4653000  37.4413000  60.8370000  61.0053000  38.5183000
  63.3670000  51.7083000  45.2683000  63.7220000  51.9353000  46.1273000
  64.0140000  52.0393000  44.6463000  57.2610000  48.8153000  42.0533000
  57.9010000  48.6743000  41.3553000  56.4290000  48.5293000  41.6763000
  58.0370000  58.1153000  38.1663000  58.8310000  57.6203000  37.9643000
  57.3260000  57.5873000  37.8033000  62.8570000  60.4973000  42.5173000
  62.9100000  61.0663000  43.2853000  61.9880000  60.6673000  42.1533000
  54.3450000  52.2603000  34.2423000  53.4150000  52.1983000  34.4593000
  54.4410000  51.7373000  33.4463000  54.2640000  48.7853000  36.8303000
  54.5250000  49.7003000  36.7213000  55.0860000  48.3183000  36.9803000
  55.7360000  50.1993000  44.0003000  56.4090000  49.9913000  43.3513000
  54.9090000  50.0013000  43.5603000  61.6390000  46.8253000  46.0163000
  60.9920000  47.5243000  45.9233000  62.4090000  47.2593000  46.3843000
  65.0470000  57.0903000  49.0913000  64.8950000  56.8613000  48.1743000
  65.0370000  58.0473000  49.1043000  61.8150000  54.6633000  44.0763000
  62.7450000  54.8143000  43.9033000  61.3950000  54.7523000  43.2213000
  60.6140000  58.6883000  41.8463000  60.4750000  58.3203000  42.7183000
  59.8260000  59.2033000  41.6743000  61.2090000  63.7893000  33.1883000
  61.3840000  63.3183000  34.0033000  60.5220000  64.4163000  33.4173000
  62.1650000  58.0663000  39.2353000  61.8300000  58.0273000  40.1303000
  61.6650000  57.4013000  38.7623000  56.1390000  53.4733000  44.7603000
  56.0010000  52.7413000  45.3613000  57.0500000  53.3843000  44.4783000
  65.1010000  55.4123000  29.5083000  64.4840000  54.6873000  29.4123000
  64.6320000  56.1733000  29.1653000  58.7670000  53.1853000  44.2483000
  59.4770000  52.5453000  44.2073000  58.7240000  53.4373000  45.1713000
  57.4800000  50.1723000  46.0683000  56.9440000  49.7213000  46.7203000
  56.8920000  50.3063000  45.3253000  55.7750000  66.9383000  39.9623000
  56.0150000  67.5703000  40.6403000  54.9320000  66.5873000  40.2493000
  56.8910000  49.6313000  28.6313000  56.0140000  49.5093000  28.2673000
  57.3660000  48.8393000  28.3783000  48.4110000  54.4183000  38.7253000
  49.0980000  54.1043000  38.1373000  48.2560000  55.3223000  38.4513000
  53.2140000  49.3073000  43.1533000  53.1300000  48.7003000  42.4183000
  52.3930000  49.7983000  43.1543000  60.2880000  62.7463000  42.3673000
  60.2150000  63.5523000  42.8783000  59.8460000  62.9453000  41.5413000
  60.0770000  61.9833000  35.8773000  59.2940000  62.5253000  35.9713000
  60.7760000  62.5013000  36.2763000  63.3870000  47.7933000  38.5203000
  63.8840000  47.0403000  38.2003000  62.6150000  47.8293000  37.9553000
  64.4700000  56.5503000  36.0943000  63.5350000  56.6703000  35.9253000
  64.6470000  55.6473000  35.8303000  59.9700000  49.9343000  38.2473000
  59.6000000  49.3823000  38.9353000  60.4660000  49.3303000  37.6953000
  57.7990000  60.3943000  45.3433000  58.5000000  61.0283000  45.4963000
  57.3290000  60.7363000  44.5823000  65.5990000  52.9493000  43.1683000
  64.9460000  53.1963000  42.5133000  65.9770000  52.1353000  42.8343000
  62.8940000  61.9113000  34.5323000  63.4230000  61.4013000  33.9203000
  63.1570000  61.5963000  35.3973000  61.6480000  53.6913000  49.6553000
  60.9720000  53.5903000  50.3253000  62.4710000  53.5353000  50.1183000
  53.3960000  59.9283000  42.2763000  53.9810000  59.1823000  42.4093000
  53.1980000  60.2383000  43.1603000  56.2500000  62.9633000  37.2923000
  55.5810000  63.4483000  36.8093000  56.1110000  63.2103000  38.2073000
  47.9880000  52.4983000  40.9963000  48.0260000  51.9653000  41.7903000
  47.4820000  51.9723000  40.3783000  55.3670000  47.3453000  44.4933000
  55.4310000  48.2063000  44.0803000  55.3030000  46.7323000  43.7603000
  54.8420000  49.4173000  48.1403000  55.4690000  49.0353000  48.7543000
  53.9850000  49.1993000  48.5063000  65.2410000  59.8233000  49.7453000
  65.7850000  60.4363000  49.2513000  64.6600000  60.3813000  50.2623000
  51.6180000  51.2253000  34.0723000  51.9140000  50.3163000  34.0193000
  50.7170000  51.2043000  33.7503000  55.1480000  49.3003000  40.0553000
  54.4270000  49.9143000  39.9153000  55.9370000  49.8363000  39.9763000
  65.5910000  60.7463000  42.5053000  64.6440000  60.6273000  42.4333000
  65.9390000  59.8593000  42.5873000  57.9510000  46.6363000  46.3293000
  58.4740000  46.8823000  47.0913000  57.7320000  47.4683000  45.9093000
  53.3470000  48.9063000  34.1963000  53.0190000  48.0263000  34.0133000
  53.7010000  48.8513000  35.0833000  62.5950000  60.5423000  38.7053000
  62.4480000  59.6133000  38.8863000  63.4210000  60.5643000  38.2213000
  56.4610000  49.1933000  34.5633000  56.8010000  49.7223000  33.8413000
  56.9090000  49.5323000  35.3393000  59.1560000  47.5773000  44.0143000
  58.8150000  46.7783000  44.4163000  58.4500000  47.8773000  43.4413000
  59.8070000  44.6623000  42.4663000  60.6300000  44.1883000  42.3443000
  60.0510000  45.4413000  42.9663000  58.4480000  47.6913000  32.7633000
  59.1690000  48.0693000  32.2593000  57.8250000  48.4103000  32.8663000
  62.5910000  48.3953000  33.6983000  62.8080000  49.2783000  33.3973000
  62.1110000  48.0043000  32.9693000  57.3310000  51.3543000  40.2763000
  57.1860000  51.6683000  41.1683000  56.8540000  51.9733000  39.7233000
  59.1910000  48.3443000  40.3243000  59.1770000  47.4483000  39.9873000
  59.9080000  48.3513000  40.9573000  61.0440000  48.7783000  42.3693000
  60.7850000  49.7003000  42.3673000  60.5120000  48.3813000  43.0593000
  51.8060000  53.8953000  43.2143000  51.2610000  54.6713000  43.3463000
  52.6840000  54.2423000  43.0563000  58.5950000  47.2263000  35.5923000
  58.7160000  46.2973000  35.7923000  58.3050000  47.2403000  34.6803000
  61.4640000  44.9113000  38.7293000  61.4860000  44.9753000  37.7743000
  61.8810000  44.0723000  38.9233000  52.5920000  53.0223000  46.1073000
  51.8510000  53.1703000  46.6943000  52.2720000  53.2823000  45.2443000
  60.5370000  62.5633000  45.9053000  60.8460000  62.3183000  46.7783000
  61.3340000  62.7683000  45.4173000  60.5590000  64.7173000  38.1363000
  60.1190000  64.2253000  38.8293000  61.3100000  64.1743000  37.8953000
  53.0380000  60.9083000  38.1383000  53.8640000  60.6083000  37.7583000
  52.6880000  60.1393000  38.5873000  58.0060000  60.2613000  40.2083000
  57.3840000  59.5983000  39.9083000  58.6770000  60.2873000  39.5263000
  51.2390000  58.8273000  39.0973000  50.4020000  58.3993000  38.9163000
  51.2110000  59.0203000  40.0343000  58.0790000  48.7393000  49.8013000
  58.1280000  49.6153000  49.4193000  58.6210000  48.1973000  49.2293000
  57.5680000  58.8113000  33.6843000  57.7160000  59.4953000  33.0313000
  58.3740000  58.7923000  34.1993000  60.3090000  49.4923000  46.5563000
  59.4390000  49.7853000  46.2843000  60.5450000  50.0763000  47.2773000
  55.3230000  54.8383000  34.6903000  55.0770000  53.9343000  34.8883000
  55.4920000  54.8393000  33.7483000  63.0130000  45.7103000  44.0733000
  63.5310000  46.4463000  43.7473000  62.6580000  46.0163000  44.9073000
  54.5920000  50.5713000  32.1893000  53.8990000  50.6453000  31.5333000
  54.3480000  49.8073000  32.7113000  63.2640000  42.1303000  39.5933000
  63.5440000  41.4623000  40.2193000  64.0490000  42.3233000  39.0803000
  61.0670000  61.3063000  31.1553000  60.4950000  61.9253000  30.7023000
  61.6400000  61.8563000  31.6893000  65.1560000  47.6373000  43.5263000
  64.5610000  47.9183000  42.8303000  64.8710000  48.1273000  44.2973000
  64.2870000  61.5903000  32.2863000  65.2200000  61.5243000  32.4893000
  64.1990000  62.4253000  31.8273000  61.4520000  52.6423000  28.4973000
  62.3980000  52.5133000  28.5663000  61.0730000  51.9043000  28.9743000
  61.3360000  56.6943000  49.9573000  62.2560000  56.8723000  50.1513000
  61.3010000  55.7493000  49.8053000  59.6360000  50.5673000  28.4323000
  58.7290000  50.2703000  28.5093000  59.9140000  50.2703000  27.5663000
  50.5540000  51.8883000  38.8823000  50.2340000  51.0343000  38.5903000
  50.0070000  52.1033000  39.6383000  54.3320000  54.6043000  42.5993000
  54.5510000  55.5363000  42.6183000  54.7440000  54.2453000  43.3853000
  61.2520000  45.1113000  34.5873000  60.4420000  44.7653000  34.9623000
  61.9410000  44.8013000  35.1753000  63.1810000  44.1893000  36.2093000
  63.7340000  44.6083000  36.8683000  63.4180000  43.2623000  36.2513000
  59.2050000  50.1773000  51.9893000  59.1040000  51.1273000  51.9213000
  58.9870000  49.8493000  51.1173000  58.4060000  47.4263000  28.5733000
  59.2680000  47.7513000  28.8333000  58.5910000  46.6393000  28.0613000
  50.4230000  55.5083000  40.8513000  49.7290000  55.0933000  40.3383000
  51.1700000  55.5503000  40.2553000  65.0100000  45.6993000  37.9193000
  65.5100000  45.8113000  37.1113000  65.6530000  45.3953000  38.5593000
  59.0680000  53.6073000  50.8063000  58.5850000  54.4073000  51.0123000
  59.1540000  53.6183000  49.8533000  52.3360000  55.4403000  38.7283000
  52.3130000  55.5393000  37.7763000  52.6460000  56.2863000  39.0503000
  54.9950000  57.4973000  42.8433000  55.9490000  57.4663000  42.7763000
  54.7960000  57.0363000  43.6583000  55.5850000  56.0683000  45.4103000
  56.4040000  56.5623000  45.4333000  55.8590000  55.1513000  45.3823000
  65.3420000  48.4593000  34.7733000  64.4540000  48.7443000  34.5553000
  65.7570000  48.2983000  33.9253000  53.3500000  63.0393000  39.8603000
  53.2160000  62.2793000  39.2943000  52.9330000  63.7633000  39.3933000
  64.4860000  58.2233000  28.8673000  65.1900000  58.4283000  29.4833000
  63.7620000  58.7913000  29.1323000  65.3160000  53.9743000  34.9883000
  65.2590000  54.4313000  34.1483000  65.8690000  53.2133000  34.8103000
  56.5070000  63.9363000  40.0723000  56.3900000  64.8813000  39.9693000
  55.6860000  63.6343000  40.4603000  66.0490000  55.1653000  32.2833000
  65.9940000  54.9993000  31.3423000  65.4240000  55.8723000  32.4393000
  50.8390000  50.4013000  46.1093000  51.4840000  49.8913000  46.5983000
  50.6300000  51.1383000  46.6833000  63.3640000  57.4693000  51.6083000
  64.2330000  57.6433000  51.2473000  62.8850000  58.2893000  51.4863000
  59.3590000  44.6653000  31.8613000  59.3470000  45.6103000  32.0183000
  60.2510000  44.4823000  31.5673000  57.5330000  64.5893000  43.2873000
  58.4350000  64.6213000  43.6043000  57.3060000  63.6593000  43.3023000
  59.2880000  63.3423000  39.9483000  58.3370000  63.3423000  39.8353000
  59.5910000  62.5963000  39.4323000  63.1740000  41.2603000  36.1163000
  62.4070000  40.7053000  36.2623000  63.5850000  41.3323000  36.9773000
  55.1780000  47.5483000  50.2073000  56.0410000  47.1923000  50.4173000
  54.6050000  47.2093000  50.8943000  36.4580000  10.5373000  22.5423000
  36.3800000  11.4883000  22.6213000  35.8540000  10.1923000  23.2003000
  33.9940000   6.5303000  23.9183000  34.1710000   7.4523000  23.7303000
  34.7900000   6.2163000  24.3473000  35.1170000   8.0483000  29.9193000
  35.6680000   7.9193000  29.1463000  34.2780000   8.3473000  29.5683000
  41.3310000   9.9693000  17.6983000  40.6570000  10.2723000  18.3073000
  41.7180000  10.7723000  17.3493000  38.2420000   7.5873000  25.0943000
  38.1990000   7.8133000  24.1653000  39.1580000   7.3533000  25.2433000
  39.5300000  10.1373000  19.9133000  39.7060000   9.6663000  20.7273000
  38.8440000  10.7643000  20.1413000  34.0960000  13.2863000  26.6873000
  34.3360000  13.9183000  27.3653000  33.2530000  12.9353000  26.9733000
  38.6090000   9.0943000  29.0913000  38.5360000   9.8993000  29.6033000
  38.1670000   9.2933000  28.2663000  38.3980000   8.3313000  22.6013000
  37.6150000   8.8733000  22.6953000  39.0980000   8.8483000  23.0013000
  41.0690000   8.9933000  31.2473000  41.7820000   9.6273000  31.1743000
  40.5780000   9.0893000  30.4313000  36.1200000   6.7423000  32.0673000
  36.8210000   7.3763000  32.2203000  35.6500000   7.0833000  31.3073000
  40.8810000   9.3323000  23.9963000  41.0630000   8.5153000  24.4583000
  41.7040000   9.5493000  23.5583000  41.2150000   8.2593000  21.2573000
  41.7440000   7.7493000  20.6443000  41.4780000   7.9443000  22.1223000
  31.7170000   6.2763000  29.0013000  32.3020000   5.5303000  29.1333000
  31.5200000   6.5863000  29.8843000  34.5710000   9.3113000  24.0173000
  33.9020000   9.7953000  23.5333000  34.4320000   9.5583000  24.9313000
  38.7110000  11.3453000  30.6153000  39.2630000  11.5083000  31.3803000
  39.0520000  11.9363000  29.9433000  41.8480000   9.2933000  27.6013000
  41.7230000   8.4923000  27.0933000  42.5060000   9.7883000  27.1133000
  38.8580000   8.9113000  32.6303000  39.1670000   8.6663000  33.5023000
  39.6560000   9.1163000  32.1423000  38.8800000  11.0653000  24.8603000
  38.4410000  10.5723000  25.5543000  39.6310000  10.5223000  24.6203000
  31.3590000   7.2563000  24.8633000  32.1850000   6.9563000  24.4833000
  31.0090000   6.4873000  25.3123000  36.3280000   6.6093000  26.9333000
  35.7060000   5.9463000  26.6333000  36.9980000   6.6353000  26.2503000
  29.5600000   5.1753000  25.8223000  28.7230000   4.7473000  25.6403000
  29.5330000   5.3683000  26.7593000  39.3880000   7.6543000  17.8803000
  38.8160000   8.2733000  17.4273000  39.9620000   8.2043000  18.4143000
  31.6710000   9.3873000  26.5843000  31.5370000   8.6273000  26.0183000
  31.2550000  10.1113000  26.1173000  34.8280000  10.2843000  26.7963000
  34.7120000  11.2293000  26.6943000  34.0080000   9.9813000  27.1853000
  35.8540000  10.9373000  30.0123000  36.7570000  10.9693000  30.3283000
  35.6280000  10.0073000  30.0263000  37.6090000   9.6903000  26.6733000
  36.6590000   9.6903000  26.5593000  37.9120000   8.9433000  26.1563000
  53.3440000  15.5263000  27.7373000  53.9820000  15.4073000  27.0343000
  53.2270000  16.4743000  27.7963000  50.1530000  15.4793000  27.6733000
  49.8150000  15.3633000  26.7863000  51.0220000  15.0783000  27.6543000
  46.0120000  17.3323000  23.6633000  45.4490000  17.2413000  22.8953000
  45.8970000  16.5123000  24.1433000  50.6350000  16.6323000  33.6323000
  50.6240000  16.2383000  32.7603000  50.7970000  15.8993000  34.2253000
  43.5590000  18.8283000  26.5023000  44.3510000  18.4873000  26.0863000
  43.7980000  18.9373000  27.4223000  51.5920000  21.0003000  18.9753000
  50.9410000  21.5853000  18.5883000  52.3860000  21.5303000  19.0343000
  45.5180000  18.0883000  19.3733000  46.2910000  17.5413000  19.2353000
  45.8700000  18.9533000  19.5853000  47.3560000  19.4163000  32.5803000
  47.0650000  20.3213000  32.4653000  47.9920000  19.4583000  33.2943000
  48.2820000  16.7943000  29.1703000  48.8780000  16.5693000  28.4563000
  48.3390000  16.0523000  29.7733000  47.8540000  14.2483000  17.0053000
  48.1070000  13.7263000  16.2443000  46.9170000  14.0843000  17.1083000
  52.8990000  13.2513000  24.8133000  53.6850000  12.8333000  24.4623000
  53.1620000  14.1563000  24.9813000  53.0700000  18.6893000  19.5123000
  52.4340000  18.7623000  20.2243000  52.7390000  19.2783000  18.8333000
  47.5740000  16.1503000  19.2083000  47.4570000  15.4753000  19.8763000
  47.6840000  15.6643000  18.3913000  49.9170000  15.6123000  22.9123000
  49.5530000  15.0853000  23.6243000  50.7740000  15.2213000  22.7393000
  49.5580000  10.6403000  17.9083000  49.7250000  11.5093000  18.2753000
  49.3670000  10.8033000  16.9853000  52.3150000  19.1023000  29.5753000
  52.0150000  20.0053000  29.4673000  51.9700000  18.8353000  30.4273000
  45.7660000  15.5543000  25.6093000  44.8410000  15.4213000  25.8163000
  46.0150000  16.3333000  26.1063000  49.5360000  13.0963000  18.8933000
  49.4160000  13.5423000  19.7323000  48.8420000  13.4453000  18.3343000
  43.1270000  15.1973000  26.4433000  43.2560000  15.4503000  27.3573000
  42.4470000  15.7903000  26.1243000  47.2970000  25.8673000  22.5423000
  47.2200000  26.8173000  22.6213000  46.6930000  25.5213000  23.2003000
  49.7890000  13.0393000  35.1983000  49.0120000  13.5993000  35.1893000
  50.4280000  13.5253000  35.7203000  48.0440000  15.8483000  34.7603000
  48.7850000  16.3863000  34.4843000  47.3370000  16.4753000  34.9173000
  53.5190000  17.9913000  33.3573000  53.9270000  17.5493000  32.6133000
  52.7970000  17.4163000  33.6113000  49.8720000  12.9283000  30.7313000
  50.7180000  13.3523000  30.8743000  49.8120000  12.2713000  31.4243000
  53.8420000  18.5513000  27.1123000  53.2130000  18.7163000  26.4103000
  53.4550000  18.9653000  27.8843000  57.7210000  19.4863000  24.4673000
  57.0360000  19.8663000  23.9173000  57.8050000  20.0963000  25.2003000
  54.9760000  17.1323000  31.0663000  55.1880000  17.7763000  30.3903000
  54.9290000  16.2993000  30.5993000  49.3950000  18.2883000  24.3773000
  49.8590000  18.5673000  23.5883000  49.1300000  17.3873000  24.1953000
  46.2870000  17.8363000  27.3153000  46.8570000  18.2643000  26.6773000
  46.8780000  17.5543000  28.0143000  48.3320000  14.4113000  21.1863000
  49.0340000  14.8633000  21.6543000  48.0000000  13.7693000  21.8143000
  46.7800000  13.0023000  35.5623000  46.1500000  13.6843000  35.7953000
  46.6730000  12.8903000  34.6173000  42.0740000  12.6693000  26.4883000
  41.2840000  12.9253000  26.0123000  42.5650000  13.4843000  26.5933000
  56.0910000  20.0103000  29.2393000  56.9120000  19.6083000  28.9573000
  56.0870000  19.9063000  30.1903000  44.0260000  13.0343000  23.4463000
  43.2290000  13.1453000  23.9653000  43.7980000  13.3723000  22.5813000
  49.8560000  19.5583000  31.3953000  49.9210000  20.0203000  32.2313000
  49.1470000  18.9283000  31.5233000  40.3580000  12.9223000  28.9203000
  40.6090000  13.8073000  29.1853000  40.8940000  12.7433000  28.1473000
  64.1810000  16.3543000  25.5873000  63.4280000  15.7843000  25.4323000
  64.3160000  16.3203000  26.5343000  49.5710000  21.2253000  21.2633000
  49.4360000  22.0703000  21.6913000  50.1120000  21.4273000  20.4993000
  43.0240000  18.7423000  21.8353000  43.5360000  19.5373000  21.9863000
  43.6760000  18.0453000  21.7693000  44.8330000  21.8593000  23.9183000
  45.0100000  22.7813000  23.7303000  45.6290000  21.5453000  24.3473000
  44.1190000  13.9053000  33.7943000  44.0040000  13.0043000  34.0953000
  43.2630000  14.1523000  33.4423000  51.1980000  21.8473000  35.3933000
  50.7540000  21.0613000  35.0753000  51.8600000  22.0353000  34.7273000
  45.9570000  23.3773000  29.9193000  46.5070000  23.2483000  29.1463000
  45.1180000  23.6763000  29.5683000  53.2960000  22.1273000  33.4213000
  53.2780000  22.9483000  32.9293000  54.2180000  22.0033000  33.6463000
  49.7530000  19.6423000  34.2633000  50.2860000  18.8813000  34.0333000
  49.2250000  19.3493000  35.0063000  40.9890000  17.0713000  22.6113000
  41.8260000  17.4813000  22.3953000  41.1670000  16.1313000  22.5813000
  52.8850000  14.7393000  18.3003000  52.3700000  15.5093000  18.5393000
  52.6130000  14.0653000  18.9233000  52.6740000  12.6113000  20.1263000
  52.3690000  12.9263000  20.9773000  53.6270000  12.6903000  20.1683000
  51.1190000  18.7703000  21.7753000  50.5910000  18.0363000  21.4623000
  50.6170000  19.5483000  21.5293000  56.0980000  16.9653000  26.8923000
  55.4400000  17.6553000  26.9803000  56.9020000  17.3553000  27.2353000
  45.8500000   9.4323000  24.1363000  46.4250000   9.2103000  23.4033000
  46.4380000   9.5013000  24.8893000  54.9080000  15.3203000  24.9423000
  55.4220000  15.9533000  25.4443000  55.5590000  14.7203000  24.5763000
  46.1770000  11.4633000  18.1553000  45.3410000  11.8003000  18.4763000
  46.0380000  11.3283000  17.2183000  49.2640000  16.5893000  14.7793000
  48.3570000  16.3573000  14.9783000  49.7610000  15.7923000  14.9663000
  52.1710000  25.2983000  17.6983000  51.4970000  25.6013000  18.3073000
  52.5570000  26.1013000  17.3493000  51.3860000  12.7953000  27.1883000
  50.4690000  13.0163000  27.0303000  51.8020000  12.8693000  26.3293000
  52.1700000  14.1943000  22.3183000  52.9170000  14.7063000  22.0093000
  52.4390000  13.8723000  23.1793000  50.4430000  16.6903000  19.3013000
  49.5340000  16.4063000  19.3983000  50.4720000  17.1103000  18.4413000
  55.6750000  20.3003000  23.0703000  55.2210000  19.4603000  23.1273000
  55.0440000  20.9373000  23.4083000  54.1180000  22.1383000  24.0053000
  54.4100000  22.6993000  23.2863000  54.6280000  22.4313000  24.7603000
  41.0110000  14.4103000  23.2823000  40.8140000  13.8173000  22.5583000
  40.4560000  14.1063000  24.0003000  48.9910000  14.3033000  25.4023000
  49.0460000  13.3503000  25.3263000  48.1800000  14.4593000  25.8863000
  50.1400000  18.2313000  16.6403000  49.7020000  17.5143000  16.1803000
  50.8810000  18.4583000  16.0783000  46.9300000  12.9203000  23.1613000
  46.1170000  13.2203000  23.5673000  47.4260000  12.5263000  23.8783000
  49.0810000  22.9163000  25.0943000  49.0390000  23.1423000  24.1653000
  49.9970000  22.6823000  25.2433000  52.5280000  13.3853000  31.9923000
  52.8830000  13.6123000  32.8523000  53.1750000  13.7163000  31.3703000
  58.2580000  16.5063000  22.6973000  58.1190000  16.6973000  21.7703000
  57.9010000  17.2683000  23.1543000  46.4220000  10.4923000  28.7773000
  47.0620000  10.3513000  28.0793000  45.5900000  10.2063000  28.4013000
  58.2840000  18.5743000  27.7093000  58.7180000  18.4823000  28.5573000
  58.9980000  18.5503000  27.0713000  47.1980000  19.7923000  24.8913000
  47.9920000  19.2973000  24.6893000  46.4870000  19.2643000  24.5273000
  52.0170000  22.1743000  29.2423000  52.0710000  22.7433000  30.0103000
  51.1490000  22.3443000  28.8773000  43.5060000  13.9373000  20.9673000
  42.5760000  13.8753000  21.1843000  43.6020000  13.4143000  20.1703000
  43.4250000  10.4623000  23.5543000  43.6850000  11.3773000  23.4453000
  44.2460000   9.9953000  23.7043000  44.8970000  11.8763000  30.7243000
  45.5690000  11.6683000  30.0763000  44.0700000  11.6783000  30.2853000
  59.1460000  18.6163000  30.2423000  59.3400000  19.5213000  30.4883000
  59.0460000  18.1573000  31.0763000  54.2080000  18.7673000  35.8163000
  54.0560000  18.5383000  34.8993000  54.1980000  19.7243000  35.8293000
  50.9760000  16.3403000  30.8013000  51.9050000  16.4913000  30.6273000
  50.5550000  16.4293000  29.9453000  49.7750000  20.3653000  28.5703000
  49.6360000  19.9973000  29.4433000  48.9860000  20.8803000  28.3993000
  50.3700000  25.4663000  19.9133000  50.5450000  24.9953000  20.7273000
  49.6830000  26.0933000  20.1413000  51.3250000  19.7433000  25.9593000
  50.9900000  19.7043000  26.8553000  50.8260000  19.0783000  25.4863000
  45.3000000  15.1503000  31.4853000  45.1620000  14.4183000  32.0863000
  46.2100000  15.0613000  31.2033000  47.9280000  14.8623000  30.9733000
  48.6380000  14.2223000  30.9323000  47.8850000  15.1143000  31.8963000
  55.9170000  21.7993000  33.8943000  55.8580000  21.1153000  33.2273000
  56.3190000  22.5413000  33.4423000  46.6410000  11.8493000  32.7923000
  46.1050000  11.3983000  33.4453000  46.0530000  11.9833000  32.0493000
  46.0510000  11.3083000  15.3553000  45.1740000  11.1873000  14.9913000
  46.5270000  10.5163000  15.1033000  55.9190000  19.7633000  32.1253000
  55.0310000  19.4263000  32.2483000  56.4880000  19.0313000  32.3623000
  37.5710000  16.0953000  25.4493000  38.2590000  15.7823000  24.8613000
  37.4160000  16.9993000  25.1763000  42.3750000  10.9843000  29.8783000
  42.2910000  10.3773000  29.1433000  41.5530000  11.4753000  29.8793000
  49.4490000  24.4233000  29.0913000  49.3760000  25.2293000  29.6033000
  49.0060000  24.6223000  28.2663000  49.2380000  23.6603000  22.6013000
  48.4540000  24.2023000  22.6953000  49.9370000  24.1783000  23.0013000
  60.4000000  15.1743000  26.8873000  60.3890000  16.0563000  26.5163000
  59.5320000  14.8213000  26.6923000  51.9090000  24.3223000  31.2473000
  52.6210000  24.9573000  31.1743000  51.4180000  24.4183000  30.4313000
  53.6300000  18.2273000  22.8193000  52.6960000  18.3473000  22.6493000
  53.8080000  17.3243000  22.5553000  49.1310000  11.6113000  24.9723000
  48.7610000  11.0593000  25.6603000  49.6270000  11.0073000  24.4193000
  57.0180000  14.0693000  23.3543000  57.4840000  14.9013000  23.2803000
  57.4680000  13.6033000  24.0583000  46.9600000  22.0713000  32.0673000
  47.6610000  22.7053000  32.2203000  46.4890000  22.4133000  31.3073000
  55.0850000  20.4133000  20.3523000  55.3610000  20.2993000  21.2623000
  54.2160000  20.0153000  20.3133000  54.7600000  14.6263000  29.8933000
  54.1070000  14.8733000  29.2383000  55.1380000  13.8123000  29.5593000
  51.7210000  24.6623000  23.9963000  51.9030000  23.8443000  24.4583000
  52.5440000  24.8783000  23.5583000  52.0550000  23.5883000  21.2573000
  52.5840000  23.0783000  20.6443000  52.3180000  23.2733000  22.1223000
  50.8090000  15.3683000  36.3793000  50.1330000  15.2673000  37.0503000
  51.6310000  15.2123000  36.8433000  42.5560000  21.6053000  29.0013000
  43.1420000  20.8593000  29.1333000  42.3590000  21.9153000  29.8843000
  45.4100000  24.6403000  24.0173000  44.7410000  25.1253000  23.5333000
  45.2720000  24.8873000  24.9313000  37.1480000  14.1753000  27.7213000
  37.1870000  13.6423000  28.5153000  36.6420000  13.6493000  27.1023000
  49.5510000  26.6743000  30.6153000  50.1030000  26.8383000  31.3803000
  49.8910000  27.2653000  29.9433000  44.5270000   9.0223000  31.2173000
  44.5910000   9.8833000  30.8053000  44.4640000   8.4093000  30.4843000
  44.0030000  11.0943000  34.8653000  44.6300000  10.7123000  35.4783000
  43.1450000  10.8763000  35.2303000  54.4020000  21.5003000  36.4703000
  54.9460000  22.1133000  35.9753000  53.8210000  22.0583000  36.9873000
  40.7790000  12.9023000  20.7963000  41.0740000  11.9933000  20.7433000
  39.8780000  12.8813000  20.4743000  52.6880000  24.6233000  27.6013000
  52.5630000  23.8223000  27.0933000  53.3460000  25.1173000  27.1133000
  44.3090000  10.9773000  26.7793000  43.5870000  11.5913000  26.6403000
  45.0980000  11.5133000  26.7013000  54.7510000  22.4233000  29.2293000
  53.8040000  22.3043000  29.1573000  55.0990000  21.5363000  29.3123000
  42.5080000  10.5833000  20.9203000  42.1790000   9.7033000  20.7383000
  42.8620000  10.5283000  21.8083000  51.7560000  22.2193000  25.4303000
  51.6080000  21.2903000  25.6113000  52.5810000  22.2413000  24.9463000
  45.6220000  10.8713000  21.2883000  45.9620000  11.3993000  20.5663000
  46.0690000  11.2093000  22.0643000  55.3590000  23.0423000  26.5163000
  56.2840000  22.8363000  26.3793000  55.1910000  22.7933000  27.4253000
  46.4920000  13.0313000  27.0003000  46.3460000  13.3453000  27.8933000
  46.0140000  13.6503000  26.4473000  55.1490000  23.5603000  21.8733000
  55.3220000  22.9953000  21.1203000  55.6420000  24.3603000  21.6903000
  40.9660000  15.5723000  29.9393000  40.4220000  16.3483000  30.0713000
  41.8440000  15.9193000  29.7813000  61.0030000  16.3243000  23.4923000
  61.4460000  15.5753000  23.0933000  60.1250000  16.3153000  23.1093000
  56.1360000  22.8773000  18.9723000  56.8310000  23.4973000  19.1913000
  56.4790000  22.0263000  19.2473000  41.7530000  14.6993000  32.8323000
  41.0110000  14.8473000  33.4183000  41.4320000  14.9593000  31.9693000
  58.0350000  20.3273000  20.5013000  58.5610000  20.6663000  19.7763000
  57.9480000  19.3913000  20.3173000  49.6970000  24.2403000  32.6303000
  50.0060000  23.9953000  33.5023000  50.4950000  24.4453000  32.1423000
  49.7200000  26.3943000  24.8603000  49.2800000  25.9023000  25.5543000
  50.4700000  25.8513000  24.6203000  47.1670000  21.9383000  26.9333000
  46.5450000  21.2753000  26.6333000  47.8370000  21.9643000  26.2503000
  40.4000000  20.5043000  25.8223000  39.5630000  20.0763000  25.6403000
  40.3720000  20.6973000  26.7593000  47.2390000  10.4163000  36.5263000
  47.2880000  11.2923000  36.1443000  47.7820000   9.8743000  35.9533000
  57.7250000  20.9603000  35.8063000  56.9340000  20.9423000  35.2673000
  57.4880000  21.4993000  36.5613000  57.8450000  17.8093000  33.1193000
  57.8940000  17.6443000  34.0613000  57.7360000  16.9423000  32.7293000
  46.7280000  20.4883000  20.4093000  46.8770000  21.1723000  19.7553000
  47.5350000  20.4693000  20.9233000  55.1350000  13.7923000  34.4353000
  56.0360000  13.6533000  34.1443000  55.2100000  13.9583000  35.3753000
  49.4690000  11.1693000  33.2813000  48.6000000  11.4623000  33.0093000
  49.7050000  11.7533000  34.0013000  59.3460000  20.2293000  33.3643000
  59.0550000  20.5923000  34.2003000  58.7340000  19.5163000  33.1853000
  60.5460000  17.7943000  25.8843000  61.3810000  18.2333000  26.0483000
  60.6820000  17.3183000  25.0653000  57.5950000  15.3523000  31.8323000
  58.0710000  15.5453000  31.0233000  56.6720000  15.4083000  31.5863000
  44.4840000  16.5153000  21.4153000  44.2380000  15.6113000  21.6133000
  44.6530000  16.5163000  20.4733000  43.7530000  12.2483000  18.9133000
  43.0600000  12.3223000  18.2573000  43.5080000  11.4843000  19.4353000
  50.2280000  22.9833000  17.8803000  49.6550000  23.6023000  17.4273000
  50.8010000  23.5333000  18.4143000  53.4480000  23.2673000  19.0113000
  54.3810000  23.2013000  19.2143000  53.3600000  24.1023000  18.5523000
  56.0760000  22.5833000  15.9713000  55.9980000  22.2493000  16.8653000
  56.8970000  23.0753000  15.9703000  58.7740000  15.4493000  29.1793000
  58.7420000  14.5113000  29.3653000  59.3840000  15.5283000  28.4453000
  64.5920000  16.5113000  28.3193000  65.3220000  16.2503000  28.8803000
  63.9820000  15.7743000  28.3593000  50.4960000  18.3713000  36.6813000
  51.4170000  18.5493000  36.8753000  50.4610000  17.4263000  36.5293000
  39.7150000  13.5653000  25.6073000  39.3950000  12.7113000  25.3143000
  39.1680000  13.7803000  26.3633000  43.4930000  16.2813000  29.3243000
  43.7110000  17.2133000  29.3423000  43.9050000  15.9223000  30.1093000
  48.3650000  11.8543000  38.7143000  48.2650000  12.8043000  38.6453000
  48.1470000  11.5263000  37.8423000  39.5830000  17.1853000  27.5763000
  38.8900000  16.7703000  27.0633000  40.3310000  17.2273000  26.9793000
  48.2280000  15.2843000  37.5303000  47.7450000  16.0843000  37.7373000
  48.3150000  15.2953000  36.5773000  41.4970000  17.1173000  25.4533000
  41.4740000  17.2163000  24.5013000  41.8070000  17.9633000  25.7743000
  44.1560000  19.1743000  29.5673000  45.1100000  19.1433000  29.5003000
  43.9570000  18.7133000  30.3823000  44.7460000  17.7453000  32.1343000
  45.5650000  18.2393000  32.1583000  45.0190000  16.8283000  32.1063000
  53.6470000  19.9003000  15.5923000  54.3500000  20.1053000  16.2083000
  52.9230000  20.4683000  15.8573000  54.4760000  15.6513000  21.7123000
  54.4200000  16.1083000  20.8733000  55.0290000  14.8903000  21.5343000
  55.5550000  20.3383000  17.6423000  56.3900000  19.9063000  17.4603000
  55.3940000  20.1673000  18.5693000  55.2100000  16.8423000  19.0073000
  55.1550000  16.6763000  18.0663000  54.5850000  17.5493000  19.1643000
  39.9990000  12.0783000  32.8343000  40.6450000  11.5683000  33.3223000
  39.7910000  12.8153000  33.4083000  52.5250000  19.1463000  38.3333000
  53.3940000  19.3213000  37.9713000  52.0450000  19.9663000  38.2103000
  46.6930000  26.2663000  30.0123000  47.5960000  26.2993000  30.3283000
  46.4670000  25.3363000  30.0263000  48.4490000  25.0193000  26.6733000
  47.4980000  25.0193000  26.5593000  48.7520000  24.2733000  26.1563000
  44.3390000   9.2253000  36.9313000  45.2020000   8.8693000  37.1413000
  43.7660000   8.8873000  37.6193000  64.1840000  30.8553000  27.7373000
  64.8220000  30.7363000  27.0343000  64.0660000  31.8033000  27.7963000
  60.9930000  30.8083000  27.6733000  60.6550000  30.6923000  26.7863000
  61.8620000  30.4073000  27.6543000  61.4750000  31.9623000  33.6323000
  61.4640000  31.5673000  32.7603000  61.6370000  31.2283000  34.2253000
  62.4310000  36.3293000  18.9753000  61.7800000  36.9143000  18.5883000
  63.2260000  36.8593000  19.0343000  56.3570000  33.4183000  19.3733000
  57.1300000  32.8713000  19.2353000  56.7100000  34.2823000  19.5853000
  58.1950000  34.7453000  32.5803000  57.9040000  35.6503000  32.4653000
  58.8310000  34.7873000  33.2943000  59.1210000  32.1233000  29.1703000
  59.7170000  31.8993000  28.4563000  59.1790000  31.3813000  29.7733000
  58.6940000  29.5773000  17.0053000  58.9460000  29.0553000  16.2443000
  57.7560000  29.4133000  17.1083000  63.7380000  28.5803000  24.8133000
  64.5240000  28.1623000  24.4623000  64.0020000  29.4853000  24.9813000
  63.9090000  34.0183000  19.5123000  63.2740000  34.0913000  20.2243000
  63.5790000  34.6073000  18.8333000  58.4130000  31.4803000  19.2083000
  58.2970000  30.8043000  19.8763000  58.5230000  30.9933000  18.3913000
  60.7560000  30.9413000  22.9123000  60.3920000  30.4143000  23.6243000
  61.6130000  30.5513000  22.7393000  60.3970000  25.9703000  17.9083000
  60.5640000  26.8383000  18.2753000  60.2070000  26.1323000  16.9853000
  63.1540000  34.4313000  29.5753000  62.8550000  35.3343000  29.4673000
  62.8100000  34.1653000  30.4273000  56.6060000  30.8833000  25.6093000
  55.6810000  30.7503000  25.8163000  56.8540000  31.6623000  26.1063000
  60.3760000  28.4253000  18.8933000  60.2560000  28.8713000  19.7323000
  59.6810000  28.7743000  18.3343000  53.9670000  30.5263000  26.4433000
  54.0960000  30.7803000  27.3573000  53.2860000  31.1193000  26.1243000
  58.1370000  41.1963000  22.5423000  58.0590000  42.1473000  22.6213000
  57.5330000  40.8503000  23.2003000  60.6280000  28.3693000  35.1983000
  59.8520000  28.9283000  35.1893000  61.2670000  28.8543000  35.7203000
  58.8830000  31.1773000  34.7603000  59.6240000  31.7163000  34.4843000
  58.1770000  31.8043000  34.9173000  64.3580000  33.3203000  33.3573000
  64.7670000  32.8783000  32.6133000  63.6360000  32.7453000  33.6113000
  60.7120000  28.2573000  30.7313000  61.5580000  28.6813000  30.8743000
  60.6510000  27.6013000  31.4243000  64.6810000  33.8803000  27.1123000
  64.0520000  34.0453000  26.4103000  64.2940000  34.2943000  27.8843000
  63.8610000  25.9183000  32.3893000  63.6180000  26.6723000  31.8523000
  64.1370000  26.2963000  33.2233000  65.8150000  32.4623000  31.0663000
  66.0270000  33.1053000  30.3903000  65.7680000  31.6283000  30.5993000
  63.4180000  25.0733000  27.9703000  62.5560000  25.3723000  28.2623000
  63.4440000  25.2903000  27.0383000  60.2340000  33.6183000  24.3773000
  60.6980000  33.8963000  23.5883000  59.9700000  32.7163000  24.1953000
  59.1710000  29.7403000  21.1863000  59.8730000  30.1923000  21.6543000
  58.8390000  29.0983000  21.8143000  57.6190000  28.3313000  35.5623000
  56.9890000  29.0133000  35.7953000  57.5130000  28.2193000  34.6173000
  52.9140000  27.9983000  26.4883000  52.1230000  28.2543000  26.0123000
  53.4050000  28.8133000  26.5933000  54.8650000  28.3633000  23.4463000
  54.0680000  28.4753000  23.9653000  54.6380000  28.7013000  22.5813000
  60.6960000  34.8873000  31.3953000  60.7600000  35.3493000  32.2313000
  59.9870000  34.2573000  31.5233000  51.1970000  28.2513000  28.9203000
  51.4480000  29.1363000  29.1853000  51.7330000  28.0723000  28.1473000
  60.4100000  36.5543000  21.2633000  60.2750000  37.3993000  21.6913000
  60.9510000  36.7563000  20.4993000  56.8970000  22.6333000  37.9243000
  56.5040000  22.0803000  38.5993000  57.7140000  22.9443000  38.3153000
  59.8140000  24.0493000  35.5163000  60.5550000  24.6503000  35.4373000
  60.0460000  23.3073000  34.9583000  54.9580000  29.2353000  33.7943000
  54.8430000  28.3333000  34.0953000  54.1020000  29.4813000  33.4423000
  62.0370000  37.1763000  35.3933000  61.5940000  36.3903000  35.0753000
  62.6990000  37.3643000  34.7273000  56.7960000  38.7063000  29.9193000
  57.3470000  38.5783000  29.1463000  55.9570000  39.0053000  29.5683000
  64.1350000  37.4573000  33.4213000  64.1170000  38.2783000  32.9293000
  65.0570000  37.3323000  33.6463000  60.5930000  34.9713000  34.2633000
  61.1250000  34.2103000  34.0333000  60.0640000  34.6783000  35.0063000
  63.7600000  20.0773000  29.7933000  63.4160000  20.9673000  29.7163000
  64.1280000  19.8873000  28.9293000  51.8280000  32.4003000  22.6113000
  52.6660000  32.8103000  22.3953000  52.0060000  31.4603000  22.5813000
  63.7250000  30.0683000  18.3003000  63.2090000  30.8383000  18.5393000
  63.4520000  29.3943000  18.9233000  61.3090000  24.9133000  23.3583000
  60.4540000  24.5243000  23.1793000  61.7220000  24.9923000  22.4983000
  62.8390000  22.4483000  27.7573000  62.3360000  22.4113000  26.9443000
  63.1320000  23.3573000  27.8173000  59.0840000  22.5313000  26.7643000
  59.9490000  22.3363000  26.4053000  59.1510000  22.3023000  27.6913000
  63.5130000  27.9413000  20.1263000  63.2080000  28.2553000  20.9773000
  64.4660000  28.0193000  20.1683000  61.9580000  34.1003000  21.7753000
  61.4300000  33.3653000  21.4623000  61.4570000  34.8773000  21.5293000
  56.6900000  24.7623000  24.1363000  57.2640000  24.5393000  23.4033000
  57.2770000  24.8313000  24.8893000  57.0170000  26.7923000  18.1553000
  56.1800000  27.1303000  18.4763000  56.8770000  26.6573000  17.2183000
  58.9920000  21.6363000  22.8633000  58.3390000  21.3213000  22.2393000
  58.9500000  21.0133000  23.5893000  60.1030000  31.9183000  14.7793000
  59.1960000  31.6873000  14.9783000  60.6000000  31.1213000  14.9663000
  63.0100000  40.6273000  17.6983000  62.3360000  40.9313000  18.3073000
  63.3970000  41.4303000  17.3493000  62.2260000  28.1243000  27.1883000
  61.3080000  28.3453000  27.0303000  62.6420000  28.1993000  26.3293000
  63.0090000  29.5233000  22.3183000  63.7570000  30.0353000  22.0093000
  63.2790000  29.2023000  23.1793000  61.2820000  32.0193000  19.3013000
  60.3730000  31.7353000  19.3983000  61.3120000  32.4393000  18.4413000
  65.4570000  26.5593000  24.3003000  64.7200000  26.0473000  24.6313000
  65.7100000  26.1193000  23.4883000  64.9570000  37.4673000  24.0053000
  65.2500000  38.0283000  23.2863000  65.4670000  37.7603000  24.7603000
  51.8510000  29.7403000  23.2823000  51.6530000  29.1463000  22.5583000
  51.2950000  29.4353000  24.0003000  59.8310000  29.6323000  25.4023000
  59.8850000  28.6793000  25.3263000  59.0200000  29.7883000  25.8863000
  60.9800000  33.5603000  16.6403000  60.5420000  32.8433000  16.1803000
  61.7210000  33.7873000  16.0783000  57.7700000  28.2503000  23.1613000
  56.9570000  28.5493000  23.5673000  58.2660000  27.8553000  23.8783000
  59.9210000  38.2453000  25.0943000  59.8780000  38.4713000  24.1653000
  60.8370000  38.0123000  25.2433000  63.3670000  28.7143000  31.9923000
  63.7220000  28.9413000  32.8523000  64.0140000  29.0463000  31.3703000
  57.2610000  25.8213000  28.7773000  57.9010000  25.6803000  28.0793000
  56.4290000  25.5353000  28.4013000  62.8570000  37.5033000  29.2423000
  62.9100000  38.0733000  30.0103000  61.9880000  37.6743000  28.8773000
  54.3450000  29.2663000  20.9673000  53.4150000  29.2043000  21.1843000
  54.4410000  28.7443000  20.1703000  54.2640000  25.7913000  23.5543000
  54.5250000  26.7063000  23.4453000  55.0860000  25.3243000  23.7043000
  55.7360000  27.2053000  30.7243000  56.4090000  26.9973000  30.0763000
  54.9090000  27.0073000  30.2853000  61.6390000  23.8313000  32.7413000
  60.9920000  24.5303000  32.6473000  62.4090000  24.2653000  33.1083000
  65.0470000  34.0963000  35.8163000  64.8950000  33.8673000  34.8993000
  65.0370000  35.0533000  35.8293000  61.8150000  31.6693000  30.8013000
  62.7450000  31.8213000  30.6273000  61.3950000  31.7583000  29.9453000
  60.6140000  35.6953000  28.5703000  60.4750000  35.3263000  29.4433000
  59.8260000  36.2093000  28.3993000  61.2090000  40.7953000  19.9133000
  61.3840000  40.3243000  20.7273000  60.5220000  41.4223000  20.1413000
  62.1650000  35.0733000  25.9593000  61.8300000  35.0333000  26.8553000
  61.6650000  34.4073000  25.4863000  56.1390000  30.4793000  31.4853000
  56.0010000  29.7473000  32.0863000  57.0500000  30.3903000  31.2033000
  58.7670000  30.1913000  30.9733000  59.4770000  29.5513000  30.9323000
  58.7240000  30.4433000  31.8963000  57.4800000  27.1783000  32.7923000
  56.9440000  26.7273000  33.4453000  56.8920000  27.3133000  32.0493000
  55.7750000  43.9443000  26.6873000  56.0150000  44.5763000  27.3653000
  54.9320000  43.5933000  26.9733000  56.8910000  26.6373000  15.3553000
  56.0140000  26.5163000  14.9913000  57.3660000  25.8453000  15.1033000
  53.2140000  26.3143000  29.8783000  53.1300000  25.7063000  29.1433000
  52.3930000  26.8043000  29.8793000  60.2880000  39.7523000  29.0913000
  60.2150000  40.5583000  29.6033000  59.8460000  39.9513000  28.2663000
  60.0770000  38.9893000  22.6013000  59.2940000  39.5323000  22.6953000
  60.7760000  39.5073000  23.0013000  63.3870000  24.7993000  25.2453000
  63.8840000  24.0463000  24.9253000  62.6150000  24.8353000  24.6793000
  62.7480000  39.6513000  31.2473000  63.4610000  40.2863000  31.1743000
  62.2570000  39.7473000  30.4313000  64.4700000  33.5563000  22.8193000
  63.5350000  33.6763000  22.6493000  64.6470000  32.6533000  22.5553000
  59.9700000  26.9413000  24.9723000  59.6000000  26.3883000  25.6603000
  60.4660000  26.3363000  24.4193000  57.7990000  37.4003000  32.0673000
  58.5000000  38.0343000  32.2203000  57.3290000  37.7423000  31.3073000
  65.5990000  29.9553000  29.8933000  64.9460000  30.2023000  29.2383000
  65.9770000  29.1413000  29.5593000  62.5600000  39.9913000  23.9963000
  62.7420000  39.1733000  24.4583000  63.3830000  40.2083000  23.5583000
  62.8940000  38.9183000  21.2573000  63.4230000  38.4073000  20.6443000
  63.1570000  38.6023000  22.1223000  61.6480000  30.6973000  36.3793000
  60.9720000  30.5963000  37.0503000  62.4710000  30.5413000  36.8433000
  56.2500000  39.9693000  24.0173000  55.5810000  40.4543000  23.5333000
  56.1110000  40.2163000  24.9313000  47.9880000  29.5053000  27.7213000
  48.0260000  28.9713000  28.5153000  47.4820000  28.9783000  27.1023000
  60.3900000  42.0043000  30.6153000  60.9420000  42.1673000  31.3803000
  60.7310000  42.5943000  29.9433000  55.3670000  24.3513000  31.2173000
  55.4310000  25.2133000  30.8053000  55.3030000  23.7383000  30.4843000
  54.8420000  26.4233000  34.8653000  55.4690000  26.0413000  35.4783000
  53.9850000  26.2053000  35.2303000  65.2410000  36.8303000  36.4703000
  65.7850000  37.4433000  35.9753000  64.6600000  37.3883000  36.9873000
  51.6180000  28.2313000  20.7963000  51.9140000  27.3223000  20.7433000
  50.7170000  28.2103000  20.4743000  63.5270000  39.9523000  27.6013000
  63.4020000  39.1513000  27.0933000  64.1850000  40.4463000  27.1133000
  55.1480000  26.3073000  26.7793000  54.4270000  26.9203000  26.6403000
  55.9370000  26.8423000  26.7013000  65.5910000  37.7533000  29.2293000
  64.6440000  37.6333000  29.1573000  65.9390000  36.8653000  29.3123000
  57.9510000  23.6423000  33.0533000  58.4740000  23.8883000  33.8163000
  57.7320000  24.4743000  32.6343000  53.3470000  25.9123000  20.9203000
  53.0190000  25.0323000  20.7383000  53.7010000  25.8573000  21.8083000
  62.5950000  37.5483000  25.4303000  62.4480000  36.6203000  25.6113000
  63.4210000  37.5703000  24.9463000  56.4610000  26.2003000  21.2883000
  56.8010000  26.7283000  20.5663000  56.9090000  26.5383000  22.0643000
  59.1560000  24.5833000  30.7383000  58.8150000  23.7843000  31.1403000
  58.4500000  24.8843000  30.1663000  59.8070000  21.6683000  29.1913000
  60.6300000  21.1943000  29.0693000  60.0510000  22.4473000  29.6913000
  58.4480000  24.6973000  19.4873000  59.1690000  25.0753000  18.9843000
  57.8250000  25.4163000  19.5913000  62.5910000  25.4023000  20.4233000
  62.8080000  26.2843000  20.1223000  62.1110000  25.0103000  19.6943000
  57.3310000  28.3603000  27.0003000  57.1860000  28.6743000  27.8933000
  56.8540000  28.9793000  26.4473000  59.1910000  25.3513000  27.0483000
  59.1770000  24.4553000  26.7113000  59.9080000  25.3583000  27.6823000
  61.0440000  25.7843000  29.0943000  60.7850000  26.7063000  29.0923000
  60.5120000  25.3873000  29.7843000  58.5950000  24.2323000  22.3173000
  58.7160000  23.3043000  22.5163000  58.3050000  24.2463000  21.4053000
  61.4640000  21.9173000  25.4543000  61.4860000  21.9813000  24.4993000
  61.8810000  21.0783000  25.6483000  60.5370000  39.5693000  32.6303000
  60.8460000  39.3243000  33.5023000  61.3340000  39.7743000  32.1423000
  60.5590000  41.7233000  24.8603000  60.1190000  41.2313000  25.5543000
  61.3100000  41.1803000  24.6203000  58.0790000  25.7453000  36.5263000
  58.1280000  26.6213000  36.1443000  58.6210000  25.2033000  35.9533000
  57.5680000  35.8173000  20.4093000  57.7160000  36.5013000  19.7553000
  58.3740000  35.7983000  20.9233000  60.3090000  26.4983000  33.2813000
  59.4390000  26.7923000  33.0093000  60.5450000  27.0823000  34.0013000
  55.3230000  31.8443000  21.4153000  55.0770000  30.9403000  21.6133000
  55.4920000  31.8463000  20.4733000  63.0130000  22.7163000  30.7973000
  63.5310000  23.4523000  30.4723000  62.6580000  23.0233000  31.6323000
  54.5920000  27.5773000  18.9133000  53.8990000  27.6513000  18.2573000
  54.3480000  26.8133000  19.4353000  63.2640000  19.1363000  26.3173000
  63.5440000  18.4693000  26.9433000  64.0490000  19.3293000  25.8053000
  61.0670000  38.3123000  17.8803000  60.4950000  38.9313000  17.4273000
  61.6400000  38.8623000  18.4143000  65.1560000  24.6443000  30.2503000
  64.5610000  24.9243000  29.5553000  64.8710000  25.1333000  31.0223000
  64.2870000  38.5963000  19.0113000  65.2200000  38.5303000  19.2143000
  64.1990000  39.4323000  18.5523000  61.3360000  33.7003000  36.6813000
  62.2560000  33.8783000  36.8753000  61.3010000  32.7563000  36.5293000
  50.5540000  28.8943000  25.6073000  50.2340000  28.0403000  25.3143000
  50.0070000  29.1093000  26.3633000  61.2520000  22.1173000  21.3113000
  60.4420000  21.7723000  21.6873000  61.9410000  21.8083000  21.9003000
  63.1810000  21.1953000  22.9343000  63.7340000  21.6143000  23.5933000
  63.4180000  20.2683000  22.9763000  59.2050000  27.1833000  38.7143000
  59.1040000  28.1333000  38.6453000  58.9870000  26.8553000  37.8423000
  65.0100000  22.7053000  24.6443000  65.5100000  22.8173000  23.8353000
  65.6530000  22.4013000  25.2843000  59.0680000  30.6133000  37.5303000
  58.5850000  31.4133000  37.7373000  59.1540000  30.6243000  36.5773000
  64.4860000  35.2293000  15.5923000  65.1900000  35.4343000  16.2083000
  63.7620000  35.7973000  15.8573000  65.3160000  30.9803000  21.7123000
  65.2590000  31.4373000  20.8733000  65.8690000  30.2193000  21.5343000
  56.5070000  40.9433000  26.7963000  56.3900000  41.8873000  26.6943000
  55.6860000  40.6403000  27.1853000  66.0490000  32.1713000  19.0073000
  65.9940000  32.0053000  18.0663000  65.4240000  32.8783000  19.1643000
  50.8390000  27.4083000  32.8343000  51.4840000  26.8973000  33.3223000
  50.6300000  28.1443000  33.4083000  63.3640000  34.4763000  38.3333000
  64.2330000  34.6503000  37.9713000  62.8850000  35.2953000  38.2103000
  57.5330000  41.5953000  30.0123000  58.4350000  41.6283000  30.3283000
  57.3060000  40.6653000  30.0263000  59.2880000  40.3483000  26.6733000
  58.3370000  40.3493000  26.5593000  59.5910000  39.6023000  26.1563000
  55.1780000  24.5543000  36.9313000  56.0410000  24.1983000  37.1413000
  54.6050000  24.2163000  37.6193000  65.2370000  49.4863000  26.5023000
  66.0290000  49.1453000  26.0863000  65.4770000  49.5953000  27.4223000
  64.8060000  45.8553000  26.4433000  64.9350000  46.1093000  27.3573000
  64.1260000  46.4483000  26.1243000  63.7530000  43.3273000  26.4883000
  62.9630000  43.5833000  26.0123000  64.2440000  44.1423000  26.5933000
  65.7040000  43.6923000  23.4463000  64.9080000  43.8043000  23.9653000
  65.4770000  44.0313000  22.5813000  62.0370000  43.5813000  28.9203000
  62.2870000  44.4653000  29.1853000  62.5730000  43.4013000  28.1473000
  64.7030000  49.4013000  21.8353000  65.2150000  50.1953000  21.9863000
  65.3550000  48.7033000  21.7693000  65.7970000  44.5643000  33.7943000
  65.6830000  43.6623000  34.0953000  64.9420000  44.8103000  33.4423000
  62.6680000  47.7303000  22.6113000  63.5050000  48.1393000  22.3953000
  62.8450000  46.7903000  22.5813000  62.6900000  45.0693000  23.2823000
  62.4930000  44.4763000  22.5583000  62.1350000  44.7643000  24.0003000
  65.1850000  44.5953000  20.9673000  64.2550000  44.5343000  21.1843000
  65.2810000  44.0733000  20.1703000  65.1030000  41.1213000  23.5543000
  65.3640000  42.0353000  23.4453000  65.9250000  40.6533000  23.7043000
  64.0540000  41.6433000  29.8783000  63.9690000  41.0353000  29.1433000
  63.2320000  42.1343000  29.8793000  64.2350000  52.2633000  29.0013000
  64.8210000  51.5183000  29.1333000  64.0380000  52.5743000  29.8843000
  58.8270000  44.8343000  27.7213000  58.8650000  44.3003000  28.5153000
  58.3210000  44.3073000  27.1023000  62.4580000  43.5603000  20.7963000
  62.7530000  42.6513000  20.7433000  61.5570000  43.5393000  20.4743000
  64.1870000  41.2423000  20.9203000  63.8580000  40.3613000  20.7383000
  64.5410000  41.1863000  21.8083000  62.6450000  46.2303000  29.9393000
  62.1010000  47.0063000  30.0713000  63.5230000  46.5773000  29.7813000
  63.4320000  45.3573000  32.8323000  62.6900000  45.5053000  33.4183000
  63.1110000  45.6183000  31.9693000  63.8770000  53.2443000  24.8633000
  64.7030000  52.9443000  24.4833000  63.5270000  52.4743000  25.3123000
  62.0780000  51.1623000  25.8223000  61.2420000  50.7343000  25.6403000
  62.0510000  51.3553000  26.7593000  65.4320000  42.9063000  18.9133000
  64.7390000  42.9803000  18.2573000  65.1870000  42.1423000  19.4353000
  61.3930000  44.2233000  25.6073000  61.0740000  43.3703000  25.3143000
  60.8470000  44.4383000  26.3633000  65.1710000  46.9393000  29.3243000
  65.3900000  47.8713000  29.3423000  65.5840000  46.5803000  30.1093000
  61.2620000  47.8433000  27.5763000  60.5680000  47.4293000  27.0633000
  62.0090000  47.8853000  26.9793000  63.1760000  47.7753000  25.4533000
  63.1530000  47.8743000  24.5013000  63.4860000  48.6223000  25.7743000
  64.1900000  55.3753000  26.5843000  64.0550000  54.6153000  26.0183000
  63.7730000  56.0993000  26.1173000  61.6780000  42.7373000  32.8343000
  62.3240000  42.2273000  33.3223000  61.4700000  43.4743000  33.4083000
   4.1030000  28.5183000  52.2673000   4.8350000  27.9483000  52.5013000
   3.3460000  28.1303000  52.7083000   3.3840000  25.1513000  55.5833000
   2.7420000  25.4453000  54.9373000   2.8800000  25.0373000  56.3893000
   3.5240000  34.8163000  51.0183000   2.8390000  35.1963000  50.4683000
   3.6080000  35.4253000  51.7513000   9.9840000  31.6833000  52.1383000
   9.2310000  31.1133000  51.9833000  10.1190000  31.6493000  53.0853000
   3.6620000  32.8213000  46.7863000   2.8850000  32.4823000  46.3423000
   4.3410000  32.8263000  46.1123000   4.0610000  31.8363000  49.2483000
   3.9220000  32.0263000  48.3203000   3.7040000  32.5973000  49.7053000
   4.0880000  33.9033000  54.2593000   4.5210000  33.8113000  55.1083000
   4.8010000  33.8793000  53.6213000   4.9490000  33.9463000  56.7933000
   5.1430000  34.8503000  57.0393000   4.8490000  33.4863000  57.6273000
   6.2030000  30.5033000  53.4383000   6.1920000  31.3853000  53.0673000
   5.3350000  30.1503000  53.2433000   2.8210000  29.3983000  49.9053000
   3.2870000  30.2313000  49.8313000   3.2710000  28.9323000  50.6093000
   6.8060000  31.6533000  50.0423000   7.2490000  30.9043000  49.6443000
   5.9280000  31.6443000  49.6603000   3.8390000  35.6563000  47.0523000
   4.3640000  35.9953000  46.3273000   3.7510000  34.7213000  46.8683000
   3.5280000  36.2893000  62.3573000   2.7380000  36.2723000  61.8173000
   3.2910000  36.8283000  63.1123000   3.6480000  33.1393000  59.6703000
   3.6980000  32.9743000  60.6123000   3.5390000  32.2713000  59.2803000
   5.1500000  35.5583000  59.9143000   4.8580000  35.9213000  60.7513000
   4.5370000  34.8453000  59.7363000   6.3490000  33.1233000  52.4353000
   7.1840000  33.5623000  52.5983000   6.4850000  32.6473000  51.6163000
   3.3980000  30.6813000  58.3823000   3.8740000  30.8743000  57.5743000
   2.4750000  30.7373000  58.1373000   4.5770000  30.7793000  55.7303000
   4.5450000  29.8403000  55.9163000   5.1870000  30.8573000  54.9963000
   4.7270000  27.5703000  55.7753000   4.2110000  26.7863000  55.5883000
   5.6110000  27.2423000  55.9403000   2.3880000  21.3143000  51.7353000
   2.1900000  21.0053000  52.6193000   2.9980000  22.0403000  51.8653000
  10.3950000  31.8403000  54.8703000  11.1250000  31.5793000  55.4313000
   9.7860000  31.1033000  54.9103000   8.4760000  29.9813000  55.4683000
   7.7500000  29.8473000  54.8593000   8.0610000  30.2893000  56.2733000
   3.6570000  25.4893000  51.7643000   4.4330000  25.9793000  52.0363000
   2.9320000  25.9153000  52.2213000   6.0940000  26.2023000  52.8213000
   6.6890000  25.9623000  52.1103000   6.1670000  25.4833000  53.4483000
   4.0900000  26.7693000  49.0883000   3.8340000  26.3693000  49.9193000
   3.4650000  27.4843000  48.9633000   8.4010000  29.5093000  51.5953000
   7.8410000  29.5783000  52.3683000   7.7960000  29.3333000  50.8753000
   9.9870000  46.1843000  54.2883000  10.6250000  46.0653000  53.5853000
   9.8690000  47.1333000  54.3473000   6.7960000  46.1373000  54.2243000
   6.4580000  46.0213000  53.3363000   7.6650000  45.7363000  54.2053000
   7.2780000  47.2913000  60.1833000   7.2670000  46.8963000  59.3113000
   7.4400000  46.5573000  60.7763000   8.2350000  51.6583000  45.5263000
   7.5830000  52.2433000  45.1393000   9.0290000  52.1893000  45.5853000
   2.1600000  48.7473000  45.9243000   2.9330000  48.2003000  45.7863000
   2.5130000  49.6113000  46.1363000   3.9990000  50.0743000  59.1313000
   3.7080000  50.9793000  59.0163000   4.6340000  50.1163000  59.8453000
   4.9240000  47.4523000  55.7213000   5.5210000  47.2283000  55.0073000
   4.9820000  46.7113000  56.3243000   4.4970000  44.9063000  43.5563000
   4.7490000  44.3843000  42.7943000   3.5590000  44.7433000  43.6593000
   9.5410000  43.9103000  51.3643000  10.3270000  43.4923000  51.0133000
   9.8050000  44.8143000  51.5323000   9.7120000  49.3473000  46.0623000
   9.0770000  49.4203000  46.7753000   9.3820000  49.9363000  45.3843000
  14.9420000  43.8473000  52.2673000  15.6740000  43.2773000  52.5013000
  14.1860000  43.4593000  52.7083000   4.2160000  46.8093000  45.7593000
   4.1000000  46.1333000  46.4273000   4.3270000  46.3223000  44.9423000
   6.5600000  46.2703000  49.4633000   6.1950000  45.7433000  50.1753000
   7.4160000  45.8803000  49.2903000  12.4640000  37.5593000  56.7263000
  12.1330000  38.4293000  56.5023000  11.8690000  37.2433000  57.4063000
   6.2000000  41.2993000  44.4593000   6.3670000  42.1673000  44.8263000
   6.0100000  41.4623000  43.5353000   8.9580000  49.7613000  56.1263000
   8.6580000  50.6633000  56.0183000   8.6130000  49.4943000  56.9783000
  12.3570000  42.2793000  53.8063000  11.4490000  42.2103000  53.5123000
  12.3060000  42.7563000  54.6343000   6.1790000  43.7553000  45.4443000
   6.0590000  44.2003000  46.2833000   5.4840000  44.1033000  44.8853000
   3.9400000  56.5253000  49.0933000   3.8620000  57.4763000  49.1723000
   3.3360000  56.1803000  49.7513000   6.4310000  43.6983000  61.7493000
   5.6550000  44.2573000  61.7393000   7.0700000  44.1833000  62.2713000
  14.2230000  40.4803000  55.5833000  13.5810000  40.7743000  54.9373000
  13.7190000  40.3663000  56.3893000  11.8770000  44.2273000  46.2723000
  12.7890000  44.4603000  46.0973000  11.3680000  44.8103000  45.7103000
   4.6860000  46.5063000  61.3113000   5.4270000  47.0453000  61.0343000
   3.9800000  47.1333000  61.4683000  10.1620000  48.6493000  59.9083000
  10.5700000  48.2073000  59.1643000   9.4390000  48.0753000  60.1623000
   6.5150000  43.5873000  57.2823000   7.3610000  44.0103000  57.4253000
   6.4550000  42.9303000  57.9753000  10.4840000  49.2093000  53.6633000
   9.8550000  49.3743000  52.9613000  10.0970000  49.6243000  54.4353000
  14.3630000  50.1453000  51.0183000  13.6780000  50.5253000  50.4683000
  14.4480000  50.7543000  51.7513000   9.6650000  41.2473000  58.9403000
   9.4210000  42.0013000  58.4033000   9.9410000  41.6253000  59.7743000
  11.6180000  47.7913000  57.6173000  11.8300000  48.4343000  56.9413000
  11.5710000  46.9573000  57.1503000   9.2210000  40.4033000  54.5213000
   8.3600000  40.7013000  54.8133000   9.2470000  40.6203000  53.5893000
   6.0370000  48.9473000  50.9283000   6.5010000  49.2263000  50.1393000
   5.7730000  48.0453000  50.7463000   2.9300000  48.4943000  53.8663000
   3.5000000  48.9233000  53.2283000   3.5200000  48.2123000  54.5653000
   4.9740000  45.0693000  47.7373000   5.6770000  45.5213000  48.2053000
   4.6420000  44.4283000  48.3653000   3.4220000  43.6603000  62.1123000
   2.7920000  44.3423000  62.3463000   3.3160000  43.5493000  61.1683000
  12.7330000  50.6683000  55.7903000  13.5550000  50.2663000  55.5083000
  12.7290000  50.5653000  56.7413000   6.4990000  50.2163000  57.9463000
   6.5630000  50.6783000  58.7823000   5.7900000  49.5863000  58.0743000
   6.2140000  51.8833000  47.8143000   6.0780000  52.7283000  48.2423000
   6.7540000  52.0853000  47.0503000   5.6170000  39.3783000  62.0673000
   6.3580000  39.9793000  61.9873000   5.8490000  38.6363000  61.5093000
   7.8400000  52.5063000  61.9443000   7.3970000  51.7193000  61.6263000
   8.5020000  52.6933000  61.2783000   9.9380000  52.7863000  59.9723000
   9.9200000  53.6073000  59.4803000  10.8600000  52.6613000  60.1973000
   6.3960000  50.3003000  60.8143000   6.9290000  49.5393000  60.5843000
   5.8670000  50.0083000  61.5573000   9.5630000  35.4063000  56.3433000
   9.2190000  36.2963000  56.2673000   9.9310000  35.2163000  55.4803000
   9.5280000  45.3973000  44.8513000   9.0120000  46.1683000  45.0903000
   9.2560000  44.7243000  45.4743000   7.1120000  40.2423000  49.9093000
   6.2570000  39.8533000  49.7303000   7.5250000  40.3213000  49.0493000
   8.6420000  37.7773000  54.3083000   8.1390000  37.7403000  53.4953000
   8.9350000  38.6863000  54.3683000   4.8870000  37.8613000  53.3153000
   5.7520000  37.6653000  52.9563000   4.9540000  37.6323000  54.2423000
   9.3160000  43.2703000  46.6773000   9.0110000  43.5843000  47.5283000
  10.2690000  43.3483000  46.7193000   7.7610000  49.4293000  48.3263000
   7.2330000  48.6943000  48.0133000   7.2600000  50.2063000  48.0803000
  12.7400000  47.6243000  53.4433000  12.0830000  48.3143000  53.5313000
  13.5440000  48.0133000  53.7863000   2.4930000  40.0913000  50.6873000
   3.0670000  39.8683000  49.9543000   3.0800000  40.1603000  51.4403000
  11.5510000  45.9783000  51.4933000  12.0640000  46.6113000  51.9953000
  12.2010000  45.3783000  51.1273000   4.7950000  36.9653000  49.4143000
   4.1420000  36.6503000  48.7903000   4.7530000  36.3433000  50.1403000
   5.9060000  47.2473000  41.3293000   4.9990000  47.0163000  41.5293000
   6.4030000  46.4513000  41.5173000   8.8130000  55.9573000  44.2493000
   8.1390000  56.2603000  44.8583000   9.2000000  56.7603000  43.9003000
   8.0290000  43.4533000  53.7393000   7.1110000  43.6753000  53.5813000
   8.4450000  43.5283000  52.8803000   8.8120000  44.8523000  48.8693000
   9.5600000  45.3643000  48.5603000   9.0820000  44.5313000  49.7303000
   7.0850000  47.3483000  45.8523000   6.1760000  47.0643000  45.9493000
   7.1150000  47.7683000  44.9923000  12.3170000  50.9593000  49.6213000
  11.8630000  50.1183000  49.6783000  11.6860000  51.5953000  49.9583000
  11.2600000  41.8883000  50.8513000  10.5230000  41.3763000  51.1823000
  11.5130000  41.4483000  50.0393000  10.7600000  52.7963000  50.5563000
  11.0530000  53.3573000  49.8373000  11.2700000  53.0893000  51.3113000
  11.3620000  34.6663000  51.4453000  11.6670000  33.8053000  51.1583000
  12.0870000  35.2573000  51.2453000   5.6340000  44.9613000  51.9533000
   5.6880000  44.0083000  51.8773000   4.8230000  45.1173000  52.4373000
   6.7830000  48.8893000  43.1913000   6.3450000  48.1733000  42.7313000
   7.5240000  49.1173000  42.6293000   3.5730000  43.5793000  49.7123000
   2.7600000  43.8783000  50.1183000   4.0690000  43.1843000  50.4293000
   5.7240000  53.5743000  51.6453000   5.6810000  53.8013000  50.7163000
   6.6400000  53.3413000  51.7943000   9.1700000  44.0433000  58.5433000
   9.5250000  44.2703000  59.4033000   9.8170000  44.3753000  57.9213000
   3.0640000  41.1513000  55.3283000   3.7040000  41.0093000  54.6303000
   2.2320000  40.8643000  54.9523000   3.8400000  50.4513000  51.4423000
   4.6340000  49.9563000  51.2403000   3.1290000  49.9233000  51.0783000
   8.6600000  52.8333000  55.7933000   8.7130000  53.4023000  56.5613000
   7.7910000  53.0033000  55.4283000   7.4420000  39.1613000  59.2923000
   6.7950000  39.8603000  59.1983000   8.2120000  39.5943000  59.6593000
  10.8500000  49.4253000  62.3673000  10.6990000  49.1973000  61.4503000
  10.8410000  50.3833000  62.3803000   7.6190000  46.9993000  57.3513000
   8.5480000  47.1503000  57.1783000   7.1980000  47.0873000  56.4963000
   6.4170000  51.0243000  55.1213000   6.2790000  50.6563000  55.9943000
   5.6290000  51.5383000  54.9503000   7.0120000  56.1253000  46.4643000
   7.1870000  55.6533000  47.2783000   6.3260000  56.7513000  46.6923000
   7.9680000  50.4023000  52.5103000   7.6330000  50.3623000  53.4063000
   7.4680000  49.7363000  52.0373000   4.5710000  45.5213000  57.5243000
   5.2810000  44.8803000  57.4823000   4.5280000  45.7723000  58.4463000
  12.5590000  52.4573000  60.4443000  12.5010000  51.7733000  59.7783000
  12.9610000  53.1993000  59.9933000   3.2830000  42.5073000  59.3433000
   2.7470000  42.0563000  59.9963000   2.6950000  42.6423000  58.6003000
  12.5610000  50.4213000  58.6763000  11.6740000  50.0843000  58.7993000
  13.1310000  49.6903000  58.9133000   6.0910000  55.0813000  55.6423000
   6.0180000  55.8873000  56.1543000   5.6490000  55.2813000  54.8173000
   5.8800000  54.3193000  49.1523000   5.0970000  54.8613000  49.2463000
   6.5790000  54.8363000  49.5523000   9.1900000  40.1283000  51.7963000
   9.6870000  39.3753000  51.4763000   8.4180000  40.1653000  51.2303000
   8.5510000  54.9803000  57.7983000   9.2640000  55.6153000  57.7253000
   8.0600000  55.0773000  56.9823000  10.2730000  48.8853000  49.3703000
   9.3380000  49.0053000  49.2003000  10.4500000  47.9833000  49.1063000
   5.7730000  42.2703000  51.5233000   5.4030000  41.7173000  52.2113000
   6.2690000  41.6663000  50.9703000  13.6600000  44.7273000  49.9053000
  14.1260000  45.5603000  49.8313000  14.1110000  44.2623000  50.6093000
   3.6020000  52.7303000  58.6183000   4.3030000  53.3633000  58.7713000
   3.1320000  53.0713000  57.8583000  11.7280000  51.0713000  46.9033000
  12.0040000  50.9573000  47.8133000  10.8580000  50.6733000  46.8643000
  11.6320000  37.0953000  53.9443000  10.7180000  37.3253000  54.1123000
  12.0610000  37.1793000  54.7953000  11.4020000  45.2843000  56.4443000
  10.7490000  45.5323000  55.7893000  11.7800000  44.4703000  56.1103000
   8.3630000  55.3203000  50.5463000   8.5450000  54.5023000  51.0093000
   9.1860000  55.5373000  50.1093000   8.6970000  54.2473000  47.8083000
   9.2260000  53.7363000  47.1953000   8.9600000  53.9313000  48.6733000
   7.4510000  46.0263000  62.9303000   6.7750000  45.9253000  63.6003000
   8.2740000  45.8703000  63.3943000   6.1930000  57.3333000  57.1663000
   6.7450000  57.4963000  57.9313000   6.5340000  57.9233000  56.4943000
  11.0440000  52.1593000  63.0213000  11.5880000  52.7723000  62.5263000
  10.4630000  52.7173000  63.5383000   9.3300000  55.2813000  54.1523000
   9.2050000  54.4803000  53.6433000   9.9880000  55.7763000  53.6643000
   3.7540000  38.9713000  59.6043000   4.2770000  39.2173000  60.3673000
   3.5350000  39.8033000  59.1843000   8.3980000  52.8773000  51.9813000
   8.2510000  51.9493000  52.1623000   9.2240000  52.8993000  51.4963000
   2.2650000  41.5293000  47.8393000   2.6040000  42.0573000  47.1173000
   2.7120000  41.8673000  48.6153000  12.0020000  53.7003000  53.0673000
  12.9260000  53.4943000  52.9303000  11.8330000  53.4523000  53.9763000
   4.9590000  39.9133000  57.2893000   4.6190000  39.1133000  57.6913000
   4.2530000  40.2133000  56.7173000   5.6110000  36.9983000  55.7423000
   6.4330000  36.5243000  55.6203000   5.8540000  37.7773000  56.2423000
   4.2510000  40.0263000  46.0383000   4.9720000  40.4043000  45.5353000
   3.6280000  40.7453000  46.1423000   8.3940000  40.7313000  46.9743000
   8.6110000  41.6133000  46.6733000   7.9140000  40.3403000  46.2453000
   3.1340000  43.6893000  53.5513000   2.9890000  44.0033000  54.4433000
   2.6570000  44.3083000  52.9983000   4.9940000  40.6803000  53.5993000
   4.9800000  39.7843000  53.2623000   5.7110000  40.6873000  54.2333000
   6.8470000  41.1133000  55.6443000   6.5880000  42.0353000  55.6433000
   6.3150000  40.7163000  56.3343000  11.7910000  54.2193000  48.4233000
  11.9650000  53.6533000  47.6713000  12.2840000  55.0193000  48.2413000
   4.3980000  39.5613000  48.8683000   4.5190000  38.6333000  49.0673000
   4.1080000  39.5753000  47.9563000   7.2670000  37.2473000  52.0053000
   7.2890000  37.3113000  51.0503000   7.6840000  36.4073000  52.1993000
  12.7790000  53.5353000  45.5233000  13.4740000  54.1563000  45.7423000
  13.1210000  52.6853000  45.7983000  14.6780000  50.9853000  47.0523000
  15.2030000  51.3243000  46.3273000  14.5900000  50.0503000  46.8683000
   6.3400000  54.8993000  59.1813000   6.6490000  54.6533000  60.0533000
   7.1370000  55.1033000  58.6933000   6.3620000  57.0523000  51.4113000
   5.9230000  56.5603000  52.1053000   7.1130000  56.5103000  51.1713000
   3.8090000  52.5963000  53.4843000   3.1870000  51.9333000  53.1843000
   4.4800000  52.6223000  52.8013000   3.8820000  41.0743000  63.0773000
   3.9310000  41.9513000  62.6953000   4.4240000  40.5323000  62.5043000
  14.3670000  51.6183000  62.3573000  13.5770000  51.6013000  61.8173000
  14.1310000  52.1573000  63.1123000  14.4870000  48.4683000  59.6703000
  14.5370000  48.3033000  60.6123000  14.3790000  47.6003000  59.2803000
   3.3710000  51.1473000  46.9593000   3.5200000  51.8303000  46.3063000
   4.1770000  51.1273000  47.4743000  11.7770000  44.4513000  60.9863000
  12.6780000  44.3113000  60.6953000  11.8520000  44.6163000  61.9263000
   6.1120000  41.8273000  59.8323000   5.2420000  42.1213000  59.5603000
   6.3480000  42.4123000  60.5523000  15.9890000  50.8873000  59.9143000
  15.6970000  51.2503000  60.7513000  15.3760000  50.1743000  59.7363000
  14.2380000  46.0113000  58.3823000  14.7130000  46.2033000  57.5743000
  13.3140000  46.0673000  58.1373000   8.8160000  38.0453000  57.3483000
   9.3340000  38.7823000  57.0233000   8.4610000  38.3523000  58.1833000
   9.0670000  34.4653000  52.8683000   9.3470000  33.7983000  53.4943000
   9.8520000  34.6583000  52.3563000   6.8700000  53.6413000  44.4313000
   6.2980000  54.2603000  43.9783000   7.4440000  54.1913000  44.9653000
  12.9380000  42.8873000  56.6153000  13.8900000  42.9873000  56.6373000
  12.7680000  42.0953000  57.1253000  10.9590000  39.9733000  56.8013000
  10.3640000  40.2533000  56.1063000  10.6740000  40.4623000  57.5733000
  10.0900000  53.9253000  45.5623000  11.0230000  53.8603000  45.7653000
  10.0020000  54.7613000  45.1033000  12.7190000  53.2423000  42.5223000
  12.6400000  52.9083000  43.4153000  13.5400000  53.7343000  42.5213000
   7.2550000  44.9773000  41.7723000   8.2010000  44.8483000  41.8413000
   6.8760000  44.2393000  42.2493000  15.5660000  42.8993000  55.7753000
  15.0500000  42.1153000  55.5883000  16.4500000  42.5713000  55.9403000
  13.2270000  36.6433000  51.7353000  13.0300000  36.3353000  52.6193000
  13.8370000  37.3693000  51.8653000   7.1390000  49.0293000  63.2323000
   8.0590000  49.2073000  63.4263000   7.1040000  48.0853000  63.0803000
   5.4390000  42.9023000  41.7083000   4.5320000  42.6063000  41.7843000
   5.7170000  42.6053000  40.8413000   7.0550000  37.4463000  47.8623000
   6.2460000  37.1013000  48.2383000   7.7440000  37.1373000  48.4513000
   8.9850000  36.5243000  49.4853000   9.5380000  36.9433000  50.1443000
   9.2220000  35.5983000  49.5273000   5.0080000  42.5133000  65.2653000
   4.9070000  43.4623000  65.1963000   4.7900000  42.1843000  64.3923000
   4.2090000  39.7613000  41.8493000   5.0710000  40.0873000  42.1093000
   4.3940000  38.9743000  41.3363000  12.3620000  38.6343000  48.9923000
  11.7820000  39.2923000  48.6103000  12.0960000  37.8123000  48.5813000
  10.8130000  38.0353000  51.1953000  11.3130000  38.1463000  50.3863000
  11.4560000  37.7313000  51.8353000  11.1450000  40.7943000  48.0483000
  10.2570000  41.0793000  47.8303000  11.5600000  40.6333000  47.2013000
  10.2890000  50.5583000  42.1433000  10.9930000  50.7633000  42.7593000
   9.5650000  51.1263000  42.4083000  11.1190000  46.3093000  48.2633000
  11.0630000  46.7663000  47.4243000  11.6720000  45.5493000  48.0853000
  12.1980000  50.9973000  44.1933000  13.0320000  50.5653000  44.0103000
  12.0360000  50.8253000  45.1203000   5.1620000  37.0013000  45.1373000
   5.1500000  37.9453000  45.2943000   6.0540000  36.8183000  44.8433000
   5.0910000  55.6783000  53.2243000   4.1410000  55.6783000  53.1103000
   5.3940000  54.9313000  52.7073000   8.9770000  33.5953000  49.3923000
   8.2110000  33.0413000  49.5373000   9.3880000  33.6673000  50.2533000
  20.8260000  61.5143000  54.2883000  21.4640000  61.3943000  53.5853000
  20.7080000  62.4623000  54.3473000  17.6350000  61.4663000  54.2243000
  17.2970000  61.3513000  53.3363000  18.5040000  61.0663000  54.2053000
  13.4940000  63.3203000  50.2143000  12.9300000  63.2293000  49.4463000
  13.3790000  62.5003000  50.6943000  18.1170000  62.6203000  60.1833000
  18.1060000  62.2253000  59.3113000  18.2790000  61.8873000  60.7763000
  12.9990000  64.0763000  45.9243000  13.7730000  63.5293000  45.7863000
  13.3520000  64.9403000  46.1363000  15.7640000  62.7813000  55.7213000
  16.3600000  62.5573000  55.0073000  15.8210000  62.0403000  56.3243000
  15.3360000  60.2353000  43.5563000  15.5890000  59.7133000  42.7943000
  14.3990000  60.0723000  43.6593000  20.3800000  59.2393000  51.3643000
  21.1670000  58.8213000  51.0133000  20.6440000  60.1433000  51.5323000
  20.5510000  64.6763000  46.0623000  19.9160000  64.7503000  46.7753000
  20.2210000  65.2653000  45.3843000  25.7810000  59.1763000  52.2673000
  26.5140000  58.6063000  52.5013000  25.0250000  58.7893000  52.7083000
  15.0560000  62.1383000  45.7593000  14.9390000  61.4633000  46.4273000
  15.1660000  61.6513000  44.9423000  17.3990000  61.5993000  49.4633000
  17.0350000  61.0723000  50.1753000  18.2560000  61.2093000  49.2903000
  17.0390000  56.6283000  44.4593000  17.2070000  57.4963000  44.8263000
  16.8490000  56.7913000  43.5353000  19.7970000  65.0903000  56.1263000
  19.4970000  65.9923000  56.0183000  19.4520000  64.8233000  56.9783000
  13.2480000  61.5413000  52.1603000  12.3230000  61.4093000  52.3673000
  13.4970000  62.3213000  52.6573000  23.1970000  57.6083000  53.8063000
  22.2880000  57.5403000  53.5123000  23.1450000  58.0853000  54.6343000
  17.0180000  59.0843000  45.4443000  16.8980000  59.5303000  46.2833000
  16.3240000  59.4323000  44.8853000  10.6090000  61.1843000  52.9943000
  10.7380000  61.4383000  53.9083000   9.9290000  61.7773000  52.6743000
  17.2710000  59.0273000  61.7493000  16.4940000  59.5863000  61.7393000
  17.9100000  59.5133000  62.2713000  22.7170000  59.5563000  46.2723000
  23.6290000  59.7893000  46.0973000  22.2080000  60.1403000  45.7103000
  15.5250000  61.8363000  61.3113000  16.2670000  62.3743000  61.0343000
  14.8190000  62.4623000  61.4683000  21.0010000  63.9783000  59.9083000
  21.4090000  63.5373000  59.1643000  20.2790000  63.4043000  60.1623000
  17.3540000  58.9163000  57.2823000  18.2000000  59.3403000  57.4253000
  17.2940000  58.2593000  57.9753000  21.3240000  64.5393000  53.6633000
  20.6950000  64.7033000  52.9613000  20.9360000  64.9533000  54.4353000
  25.2030000  65.4743000  51.0183000  24.5180000  65.8543000  50.4683000
  25.2870000  66.0843000  51.7513000  20.5040000  56.5763000  58.9403000
  20.2600000  57.3303000  58.4033000  20.7800000  56.9553000  59.7743000
  22.4580000  63.1203000  57.6173000  22.6700000  63.7633000  56.9413000
  22.4110000  62.2863000  57.1503000  20.0600000  55.7323000  54.5213000
  19.1990000  56.0303000  54.8133000  20.0870000  55.9493000  53.5893000
  16.8770000  64.2763000  50.9283000  17.3400000  64.5553000  50.1393000
  16.6120000  63.3743000  50.7463000  13.7690000  63.8233000  53.8663000
  14.3390000  64.2523000  53.2283000  14.3600000  63.5413000  54.5653000
  15.8140000  60.3983000  47.7373000  16.5160000  60.8503000  48.2053000
  15.4820000  59.7573000  48.3653000  14.2620000  58.9893000  62.1123000
  13.6310000  59.6713000  62.3463000  14.1550000  58.8783000  61.1683000
   9.5560000  58.6573000  53.0393000   8.7660000  58.9123000  52.5633000
  10.0470000  59.4723000  53.1443000  23.5720000  65.9973000  55.7903000
  24.3940000  65.5953000  55.5083000  23.5690000  65.8943000  56.7413000
  11.5080000  59.0213000  49.9973000  10.7110000  59.1333000  50.5163000
  11.2800000  59.3603000  49.1323000  17.3380000  65.5463000  57.9463000
  17.4030000  66.0083000  58.7823000  16.6290000  64.9153000  58.0743000
   7.8400000  58.9103000  55.4713000   8.0910000  59.7943000  55.7363000
   8.3760000  58.7303000  54.6983000  31.6630000  62.3413000  52.1383000
  30.9090000  61.7723000  51.9833000  31.7980000  62.3073000  53.0853000
  13.5400000  53.2923000  64.4753000  13.1460000  52.7383000  65.1503000
  14.3560000  53.6033000  64.8663000  16.4560000  54.7073000  62.0673000
  17.1970000  55.3083000  61.9873000  16.6880000  53.9653000  61.5093000
  11.6010000  59.8933000  60.3453000  11.4860000  58.9923000  60.6463000
  10.7450000  60.1393000  59.9933000  17.2350000  65.6293000  60.8143000
  17.7680000  64.8683000  60.5843000  16.7070000  65.3373000  61.5573000
   8.4710000  63.0593000  49.1623000   9.3080000  63.4693000  48.9463000
   8.6490000  62.1193000  49.1323000  20.3670000  60.7263000  44.8513000
  19.8520000  61.4973000  45.0903000  20.0950000  60.0533000  45.4743000
  17.9520000  55.5713000  49.9093000  17.0960000  55.1823000  49.7303000
  18.3650000  55.6513000  49.0493000  19.4820000  53.1063000  54.3083000
  18.9780000  53.0693000  53.4953000  19.7750000  54.0153000  54.3683000
  15.7260000  53.1903000  53.3153000  16.5910000  52.9943000  52.9563000
  15.7940000  52.9613000  54.2423000  25.3410000  63.4803000  46.7863000
  24.5640000  63.1413000  46.3423000  26.0200000  63.4853000  46.1123000
  20.1560000  58.5993000  46.6773000  19.8510000  58.9143000  47.5283000
  21.1090000  58.6773000  46.7193000  18.6000000  64.7583000  48.3263000
  18.0730000  64.0233000  48.0133000  18.0990000  65.5363000  48.0803000
  23.5800000  62.9533000  53.4433000  22.9220000  63.6433000  53.5313000
  24.3840000  63.3433000  53.7863000  13.3320000  55.4203000  50.6873000
  13.9070000  55.1983000  49.9543000  13.9190000  55.4893000  51.4403000
  22.3900000  61.3073000  51.4933000  22.9030000  61.9403000  51.9953000
  23.0400000  60.7083000  51.1273000  13.6590000  57.4503000  44.7063000
  12.8230000  57.7883000  45.0273000  13.5200000  57.3153000  43.7693000
  15.6350000  52.2943000  49.4143000  14.9810000  51.9793000  48.7903000
  15.5930000  51.6723000  50.1403000  16.7460000  62.5763000  41.3293000
  15.8380000  62.3453000  41.5293000  17.2430000  61.7803000  41.5173000
  18.8680000  58.7823000  53.7393000  17.9510000  59.0043000  53.5813000
  19.2840000  58.8573000  52.8803000  19.6520000  60.1813000  48.8693000
  20.3990000  60.6943000  48.5603000  19.9210000  59.8603000  49.7303000
  17.9250000  62.6773000  45.8523000  17.0160000  62.3933000  45.9493000
  17.9540000  63.0973000  44.9923000  23.1560000  66.2883000  49.6213000
  22.7030000  65.4473000  49.6783000  22.5260000  66.9243000  49.9583000
   8.4930000  60.3983000  49.8333000   8.2960000  59.8053000  49.1093000
   7.9380000  60.0933000  50.5513000  16.4730000  60.2903000  51.9533000
  16.5280000  59.3383000  51.8773000  15.6620000  60.4463000  52.4373000
  17.6220000  64.2183000  43.1913000  17.1840000  63.5023000  42.7313000
  18.3630000  64.4463000  42.6293000  14.4120000  58.9083000  49.7123000
  13.5990000  59.2073000  50.1183000  14.9080000  58.5133000  50.4293000
  20.0100000  59.3723000  58.5433000  20.3650000  59.5993000  59.4033000
  20.6570000  59.7043000  57.9213000  25.7390000  62.4943000  49.2483000
  25.6010000  62.6843000  48.3203000  25.3830000  63.2563000  49.7053000
  13.9040000  56.4803000  55.3283000  14.5440000  56.3393000  54.6303000
  13.0710000  56.1933000  54.9523000  25.7660000  64.5623000  54.2593000
  26.2000000  64.4693000  55.1083000  26.4800000  64.5373000  53.6213000
  10.9880000  59.9243000  47.5183000  10.0580000  59.8633000  47.7353000
  11.0840000  59.4023000  46.7213000  10.9070000  56.4503000  50.1053000
  11.1670000  57.3643000  49.9963000  11.7280000  55.9823000  50.2553000
  12.3790000  57.8643000  57.2753000  13.0510000  57.6553000  56.6263000
  11.5520000  57.6663000  56.8363000  26.6280000  64.6043000  56.7933000
  26.8220000  65.5093000  57.0393000  26.5280000  64.1453000  57.6273000
  18.2820000  54.4903000  59.2923000  17.6340000  55.1893000  59.1983000
  19.0520000  54.9233000  59.6593000  21.6890000  64.7553000  62.3673000
  21.5380000  64.5263000  61.4503000  21.6800000  65.7123000  62.3803000
  18.4580000  62.3283000  57.3513000  19.3870000  62.4793000  57.1783000
  18.0370000  62.4163000  56.4963000  18.8070000  65.7313000  52.5103000
  18.4720000  65.6913000  53.4063000  18.3080000  65.0663000  52.0373000
  12.7820000  61.1383000  58.0353000  12.6440000  60.4063000  58.6373000
  13.6920000  61.0493000  57.7543000  21.7430000  63.0773000  42.7843000
  21.1260000  62.3513000  42.6873000  21.2750000  63.8383000  42.4413000
  15.4100000  60.8503000  57.5243000  16.1200000  60.2093000  57.4823000
  15.3670000  61.1013000  58.4463000  23.3990000  67.7873000  60.4443000
  23.3400000  67.1023000  59.7783000  23.8010000  68.5283000  59.9933000
  13.5330000  57.2953000  41.9063000  12.6560000  57.1743000  41.5423000
  14.0090000  56.5043000  41.6543000  23.4000000  65.7513000  58.6763000
  22.5130000  65.4133000  58.7993000  23.9700000  65.0193000  58.9133000
   9.8570000  56.9723000  56.4293000   9.7730000  56.3653000  55.6943000
   9.0350000  57.4633000  56.4303000  27.8820000  61.1613000  53.4383000
  27.8710000  62.0443000  53.0673000  27.0140000  60.8083000  53.2433000
  21.1120000  64.2143000  49.3703000  20.1780000  64.3353000  49.2003000
  21.2900000  63.3123000  49.1063000  16.6130000  57.5993000  51.5233000
  16.2420000  57.0463000  52.2113000  17.1090000  56.9953000  50.9703000
  24.4990000  60.0563000  49.9053000  24.9650000  60.8893000  49.8313000
  24.9500000  59.5913000  50.6093000  22.5670000  66.4013000  46.9033000
  22.8430000  66.2863000  47.8133000  21.6970000  66.0023000  46.8643000
  22.2420000  60.6133000  56.4443000  21.5890000  60.8613000  55.7893000
  22.6200000  59.8003000  56.1103000  18.2900000  61.3553000  62.9303000
  17.6150000  61.2553000  63.6003000  19.1130000  61.1993000  63.3943000
   4.6300000  60.1633000  54.2723000   4.6690000  59.6293000  55.0663000
   4.1240000  59.6363000  53.6533000  12.0090000  55.0093000  57.7683000
  12.0730000  55.8713000  57.3563000  11.9460000  54.3973000  57.0353000
   8.2610000  58.8893000  47.3473000   8.5560000  57.9803000  47.2943000
   7.3600000  58.8683000  47.0253000  11.7900000  56.9653000  53.3303000
  11.0690000  57.5793000  53.1913000  12.5800000  57.5013000  53.2523000
  14.5930000  54.3003000  59.6043000  15.1160000  54.5473000  60.3673000
  14.3740000  55.1323000  59.1843000   9.9900000  56.5713000  47.4713000
   9.6610000  55.6913000  47.2893000  10.3440000  56.5163000  48.3593000
  13.1040000  56.8583000  47.8393000  13.4440000  57.3873000  47.1173000
  13.5510000  57.1963000  48.6153000  15.7980000  55.2423000  57.2893000
  15.4580000  54.4433000  57.6913000  15.0920000  55.5423000  56.7173000
  16.4500000  52.3273000  55.7423000  17.2730000  51.8533000  55.6203000
  16.6940000  53.1063000  56.2423000  15.0910000  55.3563000  46.0383000
  15.8120000  55.7343000  45.5353000  14.4670000  56.0743000  46.1423000
  13.9740000  59.0193000  53.5513000  13.8280000  59.3333000  54.4433000
  13.4960000  59.6373000  52.9983000  15.8330000  56.0093000  53.5993000
  15.8200000  55.1133000  53.2623000  16.5510000  56.0163000  54.2333000
  17.6860000  56.4433000  55.6443000  17.4280000  57.3643000  55.6433000
  17.1550000  56.0463000  56.3343000   8.4480000  61.5593000  56.4903000
   7.9040000  62.3353000  56.6223000   9.3260000  61.9063000  56.3323000
  15.2370000  54.8903000  48.8683000  15.3590000  53.9623000  49.0673000
  14.9470000  54.9043000  47.9563000  28.4850000  62.3113000  50.0423000
  28.9280000  61.5623000  49.6443000  27.6070000  62.3023000  49.6603000
  25.5170000  66.3143000  47.0523000  26.0420000  66.6533000  46.3273000
  25.4300000  65.3793000  46.8683000  14.7210000  56.4043000  63.0773000
  14.7700000  57.2803000  62.6953000  15.2630000  55.8613000  62.5043000
  25.2070000  66.9483000  62.3573000  24.4160000  66.9303000  61.8173000
  24.9700000  67.4863000  63.1123000  25.3260000  63.7973000  59.6703000
  25.3760000  63.6323000  60.6123000  25.2180000  62.9303000  59.2803000
  22.6170000  59.7803000  60.9863000  23.5180000  59.6413000  60.6953000
  22.6920000  59.9453000  61.9263000  16.9510000  57.1573000  59.8323000
  16.0810000  57.4503000  59.5603000  17.1870000  57.7413000  60.5523000
  26.8280000  66.2173000  59.9143000  26.5370000  66.5803000  60.7513000
  26.2160000  65.5033000  59.7363000  28.0280000  63.7823000  52.4353000
  28.8630000  64.2213000  52.5983000  28.1640000  63.3063000  51.6163000
  25.0770000  61.3403000  58.3823000  25.5520000  61.5333000  57.5743000
  24.1540000  61.3963000  58.1373000  11.9650000  62.5023000  47.9663000
  11.7200000  61.5983000  48.1643000  12.1350000  62.5043000  47.0243000
  19.6550000  53.3753000  57.3483000  20.1730000  54.1113000  57.0233000
  19.3010000  53.6813000  58.1833000  11.2350000  58.2353000  45.4643000
  10.5420000  58.3103000  44.8083000  10.9900000  57.4713000  45.9863000
  23.7770000  58.2163000  56.6153000  24.7290000  58.3163000  56.6373000
  23.6080000  57.4243000  57.1253000  21.7990000  55.3023000  56.8013000
  21.2040000  55.5823000  56.1063000  21.5140000  55.7913000  57.5733000
  23.5580000  68.5713000  42.5223000  23.4800000  68.2373000  43.4153000
  24.3790000  69.0633000  42.5213000  26.2560000  61.4373000  55.7303000
  26.2240000  60.4993000  55.9163000  26.8660000  61.5153000  54.9963000
  18.0940000  60.3073000  41.7723000  19.0400000  60.1773000  41.8413000
  17.7160000  59.5683000  42.2493000  26.4050000  58.2283000  55.7753000
  25.8890000  57.4443000  55.5883000  27.2890000  57.9003000  55.9403000
  32.0740000  62.4993000  54.8703000  32.8040000  62.2373000  55.4313000
  31.4640000  61.7623000  54.9103000  30.1550000  60.6393000  55.4683000
  29.4290000  60.5053000  54.8593000  29.7400000  60.9473000  56.2733000
  17.9780000  64.3583000  63.2323000  18.8990000  64.5363000  63.4263000
  17.9430000  63.4143000  63.0803000  16.2790000  58.2323000  41.7083000
  15.3720000  57.9353000  41.7843000  16.5560000  57.9353000  40.8413000
   7.1960000  59.5523000  52.1583000   6.8770000  58.6993000  51.8653000
   6.6500000  59.7673000  52.9133000  10.9740000  62.2693000  55.8753000
  11.1930000  63.2003000  55.8933000  11.3870000  61.9093000  56.6603000
  15.8470000  57.8423000  65.2653000  15.7470000  58.7913000  65.1963000
  15.6290000  57.5143000  64.3923000  15.0490000  55.0903000  41.8493000
  15.9100000  55.4163000  42.1093000  15.2340000  54.3033000  41.3363000
  12.2280000  63.7323000  58.6853000  13.0470000  64.2273000  58.7093000
  12.5010000  62.8153000  58.6573000  27.7730000  56.8613000  52.8213000
  28.3670000  56.6203000  52.1103000  27.8460000  56.1413000  53.4483000
  21.1290000  65.8883000  42.1433000  21.8320000  66.0933000  42.7593000
  20.4050000  66.4553000  42.4083000  21.9580000  61.6393000  48.2633000
  21.9020000  62.0963000  47.4243000  22.5110000  60.8783000  48.0853000
  30.0800000  60.1673000  51.5953000  29.5200000  60.2373000  52.3683000
  29.4740000  59.9913000  50.8753000  23.0370000  66.3263000  44.1933000
  23.8720000  65.8943000  44.0103000  22.8760000  66.1543000  45.1203000
  22.6920000  62.8293000  45.5583000  22.6370000  62.6643000  44.6173000
  22.0660000  63.5373000  45.7153000  34.1430000  68.2183000  56.7263000
  33.8120000  69.0873000  56.5023000  33.5480000  67.9013000  57.4063000
  35.9020000  71.1393000  55.5833000  35.2600000  71.4323000  54.9373000
  35.3980000  71.0243000  56.3893000  24.3790000  68.6213000  64.4753000
  23.9860000  68.0673000  65.1503000  25.1960000  68.9323000  64.8663000
  31.2410000  66.0653000  56.3433000  30.8980000  66.9553000  56.2673000
  31.6090000  65.8753000  55.4803000  30.3210000  68.4353000  54.3083000
  29.8180000  68.3983000  53.4953000  30.6140000  69.3443000  54.3683000
  26.5650000  68.5193000  53.3153000  27.4310000  68.3233000  52.9563000
  26.6330000  68.2903000  54.2423000  26.4740000  67.6233000  49.4143000
  25.8200000  67.3083000  48.7903000  26.4320000  67.0013000  50.1403000
  33.0400000  65.3243000  51.4453000  33.3460000  64.4643000  51.1583000
  33.7660000  65.9163000  51.2453000  29.1210000  69.8193000  59.2923000
  28.4740000  70.5183000  59.1983000  29.8910000  70.2533000  59.6593000
  30.8690000  70.7863000  51.7963000  31.3650000  70.0333000  51.4763000
  30.0970000  70.8233000  51.2303000  33.3100000  67.7533000  53.9443000
  32.3970000  67.9843000  54.1123000  33.7400000  67.8373000  54.7953000
  27.2890000  67.6563000  55.7423000  28.1120000  67.1823000  55.6203000
  27.5330000  68.4353000  56.2423000  28.9460000  67.9053000  52.0053000
  28.9680000  67.9693000  51.0503000  29.3620000  67.0653000  52.1993000
  30.4940000  68.7043000  57.3483000  31.0130000  69.4403000  57.0233000
  30.1400000  69.0103000  58.1833000  30.7460000  65.1243000  52.8683000
  31.0260000  64.4563000  53.4943000  31.5310000  65.3173000  52.3563000
  32.6380000  70.6313000  56.8013000  32.0430000  70.9123000  56.1063000
  32.3530000  71.1213000  57.5733000  37.2450000  73.5573000  55.7753000
  36.7290000  72.7733000  55.5883000  38.1290000  73.2293000  55.9403000
  34.9060000  67.3013000  51.7353000  34.7080000  66.9933000  52.6193000
  35.5160000  68.0283000  51.8653000  28.7340000  68.1053000  47.8623000
  27.9240000  67.7593000  48.2383000  29.4230000  67.7953000  48.4513000
  30.6630000  67.1823000  49.4853000  31.2160000  67.6023000  50.1443000
  30.9000000  66.2563000  49.5273000  34.0410000  69.2923000  48.9923000
  33.4610000  69.9513000  48.6103000  33.7750000  68.4703000  48.5813000
  32.4920000  68.6933000  51.1953000  32.9910000  68.8053000  50.3863000
  33.1350000  68.3893000  51.8353000  32.8240000  71.4523000  48.0483000
  31.9360000  71.7373000  47.8303000  33.2390000  71.2923000  47.2013000
  36.1750000  71.4773000  51.7643000  36.9510000  71.9673000  52.0363000
  35.4500000  71.9033000  52.2213000  38.6120000  72.1903000  52.8213000
  39.2070000  71.9493000  52.1103000  38.6850000  71.4713000  53.4483000
  26.8410000  67.6593000  45.1373000  26.8290000  68.6033000  45.2943000
  27.7330000  67.4763000  44.8433000  30.6560000  64.2533000  49.3923000
  29.8890000  63.6993000  49.5373000  31.0670000  64.3263000  50.2533000
   9.9870000  23.1913000  41.0133000  10.6250000  23.0713000  40.3093000
   9.8690000  24.1393000  41.0723000   6.7960000  23.1433000  40.9493000
   6.4580000  23.0283000  40.0613000   7.6650000  22.7433000  40.9293000
   7.2780000  24.2973000  46.9083000   7.2670000  23.9023000  46.0363000
   7.4400000  23.5643000  47.5013000   8.2350000  28.6643000  32.2503000
   7.5830000  29.2503000  31.8633000   9.0290000  29.1953000  32.3103000
   2.1600000  25.7533000  32.6493000   2.9330000  25.2063000  32.5103000
   2.5130000  26.6173000  32.8603000   3.9990000  27.0813000  45.8553000
   3.7080000  27.9853000  45.7403000   4.6340000  27.1223000  46.5703000
   4.9240000  24.4583000  42.4463000   5.5210000  24.2343000  41.7313000
   4.9820000  23.7173000  43.0483000   4.4970000  21.9123000  30.2813000
   4.7490000  21.3903000  29.5193000   3.5590000  21.7493000  30.3833000
   9.5410000  20.9163000  38.0883000  10.3270000  20.4983000  37.7373000
   9.8050000  21.8203000  38.2563000   9.7120000  26.3533000  32.7873000
   9.0770000  26.4273000  33.4993000   9.3820000  26.9433000  32.1093000
  14.9420000  20.8533000  38.9913000  15.6740000  20.2833000  39.2253000
  14.1860000  20.4663000  39.4323000   4.2160000  23.8153000  32.4833000
   4.1000000  23.1403000  33.1513000   4.3270000  23.3283000  31.6663000
   6.5600000  23.2763000  36.1883000   6.1950000  22.7493000  36.8993000
   7.4160000  22.8863000  36.0143000   6.2000000  18.3053000  31.1843000
   6.3670000  19.1733000  31.5513000   6.0100000  18.4683000  30.2603000
   8.9580000  26.7673000  42.8503000   8.6580000  27.6693000  42.7423000
   8.6130000  26.5003000  43.7033000  12.3570000  19.2853000  40.5303000
  11.4490000  19.2173000  40.2363000  12.3060000  19.7623000  41.3583000
   3.9400000  33.5313000  35.8183000   3.8620000  34.4823000  35.8963000
   3.3360000  33.1863000  36.4753000   6.4310000  20.7043000  48.4743000
   5.6550000  21.2633000  48.4643000   7.0700000  21.1903000  48.9953000
  14.2230000  17.4873000  42.3083000  13.5810000  17.7803000  41.6623000
  13.7190000  17.3723000  43.1133000  11.8770000  21.2333000  32.9973000
  12.7890000  21.4663000  32.8213000  11.3680000  21.8173000  32.4343000
   4.6860000  23.5133000  48.0353000   5.4270000  24.0513000  47.7593000
   3.9800000  24.1393000  48.1933000  10.1620000  25.6553000  46.6333000
  10.5700000  25.2143000  45.8883000   9.4390000  25.0813000  46.8863000
   6.5150000  20.5933000  44.0063000   7.3610000  21.0173000  44.1503000
   6.4550000  19.9363000  44.7003000  10.4840000  26.2163000  40.3883000
   9.8550000  26.3803000  39.6863000  10.0970000  26.6303000  41.1593000
  14.3630000  27.1513000  37.7423000  13.6780000  27.5313000  37.1923000
  14.4480000  27.7613000  38.4763000   9.6650000  18.2533000  45.6643000
   9.4210000  19.0073000  45.1283000   9.9410000  18.6323000  46.4993000
  11.6180000  24.7973000  44.3423000  11.8300000  25.4403000  43.6653000
  11.5710000  23.9633000  43.8743000   9.2210000  17.4093000  41.2463000
   8.3600000  17.7073000  41.5373000   9.2470000  17.6263000  40.3143000
   6.0370000  25.9533000  37.6533000   6.5010000  26.2323000  36.8633000
   5.7730000  25.0513000  37.4703000   2.9300000  25.5003000  40.5913000
   3.5000000  25.9293000  39.9533000   3.5200000  25.2183000  41.2893000
   4.9740000  22.0753000  34.4623000   5.6770000  22.5273000  34.9293000
   4.6420000  21.4343000  35.0903000   3.4220000  20.6673000  48.8373000
   2.7920000  21.3483000  49.0713000   3.3160000  20.5553000  47.8923000
  12.7330000  27.6743000  42.5143000  13.5550000  27.2723000  42.2323000
  12.7290000  27.5713000  43.4663000   6.4990000  27.2233000  44.6703000
   6.5630000  27.6853000  45.5063000   5.7900000  26.5923000  44.7983000
  20.8240000  24.0183000  38.8633000  20.0700000  23.4493000  38.7073000
  20.9580000  23.9843000  39.8103000   6.2140000  28.8893000  34.5383000
   6.0780000  29.7353000  34.9673000   6.7540000  29.0913000  33.7753000
   5.6170000  16.3843000  48.7923000   6.3580000  16.9853000  48.7123000
   5.8490000  15.6423000  48.2333000   7.8400000  29.5123000  48.6683000
   7.3970000  28.7253000  48.3503000   8.5020000  29.7003000  48.0033000
   9.9380000  29.7923000  46.6963000   9.9200000  30.6133000  46.2043000
  10.8600000  29.6673000  46.9213000   6.3960000  27.3063000  47.5393000
   6.9290000  26.5453000  47.3093000   5.8670000  27.0143000  48.2813000
   9.5630000  12.4123000  43.0683000   9.2190000  13.3033000  42.9923000
   9.9310000  12.2233000  42.2053000   9.5280000  22.4033000  31.5753000
   9.0120000  23.1743000  31.8143000   9.2560000  21.7303000  32.1993000
   7.1120000  17.2483000  36.6343000   6.2570000  16.8593000  36.4543000
   7.5250000  17.3283000  35.7743000   8.6420000  14.7833000  41.0333000
   8.1390000  14.7463000  40.2203000   8.9350000  15.6923000  41.0933000
   4.8870000  14.8673000  40.0403000   5.7520000  14.6713000  39.6803000
   4.9540000  14.6383000  40.9663000  14.5010000  25.1573000  33.5113000
  13.7240000  24.8183000  33.0663000  15.1800000  25.1623000  32.8363000
   9.3160000  20.2763000  33.4013000   9.0110000  20.5913000  34.2523000
  10.2690000  20.3543000  33.4443000   7.7610000  26.4353000  35.0513000
   7.2330000  25.7003000  34.7383000   7.2600000  27.2133000  34.8053000
  12.7400000  24.6303000  40.1673000  12.0830000  25.3203000  40.2553000
  13.5440000  25.0203000  40.5113000   2.4930000  17.0973000  37.4113000
   3.0670000  16.8753000  36.6793000   3.0800000  17.1663000  38.1643000
  11.5510000  22.9843000  38.2183000  12.0640000  23.6173000  38.7203000
  12.2010000  22.3853000  37.8523000   5.9060000  24.2533000  28.0543000
   4.9990000  24.0223000  28.2533000   6.4030000  23.4573000  28.2413000
   8.8130000  32.9633000  30.9743000   8.1390000  33.2663000  31.5823000
   9.2000000  33.7663000  30.6243000   8.0290000  20.4593000  40.4633000
   7.1110000  20.6813000  40.3063000   8.4450000  20.5343000  39.6053000
   8.8120000  21.8593000  35.5943000   9.5600000  22.3713000  35.2843000
   9.0820000  21.5373000  36.4543000   7.0850000  24.3543000  32.5763000
   6.1760000  24.0703000  32.6743000   7.1150000  24.7743000  31.7173000
  12.3170000  27.9653000  36.3463000  11.8630000  27.1243000  36.4023000
  11.6860000  28.6013000  36.6833000  11.2600000  18.8943000  37.5763000
  10.5230000  18.3823000  37.9073000  11.5130000  18.4543000  36.7643000
  10.7600000  29.8033000  37.2813000  11.0530000  30.3633000  36.5623000
  11.2700000  30.0963000  38.0363000  11.3620000  11.6723000  38.1703000
  11.6670000  10.8123000  37.8823000  12.0870000  12.2643000  37.9703000
   5.6340000  21.9673000  38.6773000   5.6880000  21.0153000  38.6023000
   4.8230000  22.1233000  39.1623000   6.7830000  25.8953000  29.9153000
   6.3450000  25.1793000  29.4563000   7.5240000  26.1233000  29.3543000
   3.5730000  20.5853000  36.4363000   2.7600000  20.8843000  36.8433000
   4.0690000  20.1913000  37.1543000   5.7240000  30.5813000  38.3703000
   5.6810000  30.8073000  37.4413000   6.6400000  30.3473000  38.5183000
   9.1700000  21.0493000  45.2683000   9.5250000  21.2763000  46.1273000
   9.8170000  21.3813000  44.6463000  14.9000000  24.1713000  35.9733000
  14.7620000  24.3613000  35.0453000  14.5440000  24.9333000  36.4303000
   3.0640000  18.1573000  42.0533000   3.7040000  18.0163000  41.3553000
   2.2320000  17.8703000  41.6763000  14.9270000  26.2393000  40.9843000
  15.3610000  26.1463000  41.8323000  15.6400000  26.2143000  40.3463000
   3.8400000  27.4573000  38.1663000   4.6340000  26.9623000  37.9643000
   3.1290000  26.9293000  37.8033000   8.6600000  29.8393000  42.5173000
   8.7130000  30.4083000  43.2853000   7.7910000  30.0093000  42.1533000
  15.7890000  26.2813000  43.5173000  15.9820000  27.1863000  43.7633000
  15.6890000  25.8223000  44.3513000   7.4420000  16.1673000  46.0163000
   6.7950000  16.8663000  45.9233000   8.2120000  16.6003000  46.3843000
  10.8500000  26.4323000  49.0913000  10.6990000  26.2033000  48.1743000
  10.8410000  27.3893000  49.1043000   7.6190000  24.0053000  44.0763000
   8.5480000  24.1563000  43.9033000   7.1980000  24.0933000  43.2213000
   6.4170000  28.0303000  41.8463000   6.2790000  27.6623000  42.7183000
   5.6290000  28.5453000  41.6743000   7.0120000  33.1313000  33.1883000
   7.1870000  32.6603000  34.0033000   6.3260000  33.7573000  33.4173000
   7.9680000  27.4083000  39.2353000   7.6330000  27.3683000  40.1303000
   7.4680000  26.7433000  38.7623000  10.9040000  24.7543000  29.5083000
  10.2870000  24.0283000  29.4123000  10.4360000  25.5153000  29.1653000
   4.5710000  22.5273000  44.2483000   5.2810000  21.8863000  44.2073000
   4.5280000  22.7783000  45.1713000  12.5590000  29.4643000  47.1693000
  12.5010000  28.7793000  46.5023000  12.9610000  30.2053000  46.7173000
   3.2830000  19.5133000  46.0683000   2.7470000  19.0623000  46.7203000
   2.6950000  19.6483000  45.3253000  12.5610000  27.4283000  45.4003000
  11.6740000  27.0903000  45.5233000  13.1310000  26.6963000  45.6373000
   6.0910000  32.0883000  42.3673000   6.0180000  32.8933000  42.8783000
   5.6490000  32.2873000  41.5413000   5.8800000  31.3253000  35.8773000
   5.0970000  31.8673000  35.9713000   6.5790000  31.8423000  36.2763000
   9.1900000  17.1343000  38.5203000   9.6870000  16.3813000  38.2003000
   8.4180000  17.1713000  37.9553000  17.0430000  22.8383000  40.1623000
  17.0320000  23.7213000  39.7913000  16.1740000  22.4863000  39.9683000
   8.5510000  31.9863000  44.5223000   9.2640000  32.6213000  44.4503000
   8.0600000  32.0833000  43.7063000  10.2730000  25.8913000  36.0943000
   9.3380000  26.0123000  35.9253000  10.4500000  24.9893000  35.8303000
   5.7730000  19.2763000  38.2473000   5.4030000  18.7233000  38.9353000
   6.2690000  18.6723000  37.6953000  13.6600000  21.7333000  36.6293000
  14.1260000  22.5663000  36.5553000  14.1110000  21.2683000  37.3343000
   3.6020000  29.7363000  45.3433000   4.3030000  30.3693000  45.4963000
   3.1320000  30.0773000  44.5823000  11.7280000  28.0783000  33.6283000
  12.0040000  27.9633000  34.5373000  10.8580000  27.6793000  33.5893000
  11.6320000  14.1013000  40.6683000  10.7180000  14.3323000  40.8363000
  12.0610000  14.1853000  41.5203000  11.4020000  22.2903000  43.1683000
  10.7490000  22.5383000  42.5133000  11.7800000  21.4773000  42.8343000
   8.3630000  32.3263000  37.2713000   8.5450000  31.5083000  37.7343000
   9.1860000  32.5433000  36.8333000   8.6970000  31.2533000  34.5323000
   9.2260000  30.7423000  33.9203000   8.9600000  30.9373000  35.3973000
   7.4510000  23.0323000  49.6553000   6.7750000  22.9323000  50.3253000
   8.2740000  22.8763000  50.1183000   6.1930000  34.3393000  43.8913000
   6.7450000  34.5023000  44.6553000   6.5340000  34.9293000  43.2193000
  11.0440000  29.1653000  49.7453000  11.5880000  29.7783000  49.2513000
  10.4630000  29.7233000  50.2623000  11.3940000  30.0883000  42.5053000
  10.4470000  29.9693000  42.4333000  11.7420000  29.2003000  42.5873000
   3.7540000  15.9773000  46.3293000   4.2770000  16.2243000  47.0913000
   3.5350000  16.8093000  45.9093000   8.3980000  29.8833000  38.7053000
   8.2510000  28.9553000  38.8863000   9.2240000  29.9053000  38.2213000
   2.2650000  18.5353000  34.5633000   2.6040000  19.0643000  33.8413000
   2.7120000  18.8733000  35.3393000  12.0020000  30.7063000  39.7923000
  12.9260000  30.5003000  39.6543000  11.8330000  30.4583000  40.7013000
   4.9590000  16.9193000  44.0143000   4.6190000  16.1203000  44.4163000
   4.2530000  17.2193000  43.4413000   5.6110000  14.0043000  42.4663000
   6.4330000  13.5303000  42.3443000   5.8540000  14.7833000  42.9663000
   4.2510000  17.0333000  32.7633000   4.9720000  17.4113000  32.2593000
   3.6280000  17.7513000  32.8663000   8.3940000  17.7373000  33.6983000
   8.6110000  18.6203000  33.3973000   7.9140000  17.3463000  32.9693000
   3.1340000  20.6963000  40.2763000   2.9890000  21.0103000  41.1683000
   2.6570000  21.3143000  39.7233000   4.9940000  17.6863000  40.3243000
   4.9800000  16.7903000  39.9873000   5.7110000  17.6933000  40.9573000
   6.8470000  18.1203000  42.3693000   6.5880000  19.0413000  42.3673000
   6.3150000  17.7233000  43.0593000  11.7910000  31.2253000  35.1483000
  11.9650000  30.6593000  34.3953000  12.2840000  32.0253000  34.9663000
   4.3980000  16.5673000  35.5923000   4.5190000  15.6393000  35.7923000
   4.1080000  16.5813000  34.6803000   7.2670000  14.2533000  38.7293000
   7.2890000  14.3173000  37.7743000   7.6840000  13.4133000  38.9233000
  12.7790000  30.5413000  32.2483000  13.4740000  31.1623000  32.4663000
  13.1210000  29.6913000  32.5233000  14.6780000  27.9913000  33.7763000
  15.2030000  28.3303000  33.0513000  14.5900000  27.0563000  33.5933000
   6.3400000  31.9053000  45.9053000   6.6490000  31.6603000  46.7783000
   7.1370000  32.1093000  45.4173000   6.3620000  34.0593000  38.1363000
   5.9230000  33.5663000  38.8293000   7.1130000  33.5163000  37.8953000
   3.8090000  29.6023000  40.2083000   3.1870000  28.9393000  39.9083000
   4.4800000  29.6283000  39.5263000   3.8820000  18.0813000  49.8013000
   3.9310000  18.9573000  49.4193000   4.4240000  17.5383000  49.2293000
  14.3670000  28.6253000  49.0823000  13.5770000  28.6073000  48.5423000
  14.1310000  29.1633000  49.8363000  14.4870000  25.4743000  46.3953000
  14.5370000  25.3093000  47.3363000  14.3790000  24.6073000  46.0053000
   3.3710000  28.1533000  33.6843000   3.5200000  28.8363000  33.0313000
   4.1770000  28.1333000  34.1993000  11.7770000  21.4573000  47.7113000
  12.6780000  21.3183000  47.4193000  11.8520000  21.6223000  48.6513000
   6.1120000  18.8343000  46.5563000   5.2420000  19.1273000  46.2843000
   6.3480000  19.4183000  47.2773000  15.9890000  27.8943000  46.6393000
  15.6970000  28.2573000  47.4753000  15.3760000  27.1803000  46.4603000
  17.1890000  25.4593000  39.1593000  18.0230000  25.8983000  39.3233000
  17.3240000  24.9833000  38.3403000  14.2380000  23.0173000  45.1073000
  14.7130000  23.2103000  44.2993000  13.3140000  23.0733000  44.8613000
   8.8160000  15.0523000  44.0733000   9.3340000  15.7883000  43.7473000
   8.4610000  15.3583000  44.9073000   6.8700000  30.6483000  31.1553000
   6.2980000  31.2673000  30.7023000   7.4440000  31.1983000  31.6893000
  12.9380000  19.8933000  43.3403000  13.8900000  19.9933000  43.3613000
  12.7680000  19.1013000  43.8503000  10.9590000  16.9793000  43.5263000
  10.3640000  17.2603000  42.8303000  10.6740000  17.4683000  44.2973000
  10.0900000  30.9313000  32.2863000  11.0230000  30.8663000  32.4893000
  10.0020000  31.7673000  31.8273000  12.7190000  30.2483000  29.2463000
  12.6400000  29.9143000  30.1403000  13.5400000  30.7403000  29.2463000
  15.4170000  23.1143000  42.4543000  15.3840000  22.1763000  42.6403000
  16.0270000  23.1923000  41.7213000   7.2550000  21.9843000  28.4973000
   8.2010000  21.8543000  28.5663000   6.8760000  21.2453000  28.9743000
  15.5660000  19.9053000  42.5003000  15.0500000  19.1213000  42.3133000
  16.4500000  19.5773000  42.6653000  13.2270000  13.6493000  38.4593000
  13.0300000  13.3413000  39.3443000  13.8370000  14.3753000  38.5893000
  21.2340000  24.1763000  41.5953000  21.9650000  23.9143000  42.1553000
  20.6250000  23.4393000  41.6353000  19.3160000  22.3163000  42.1923000
  18.5890000  22.1823000  41.5843000  18.9010000  22.6243000  42.9983000
   7.1390000  26.0353000  49.9573000   8.0590000  26.2133000  50.1513000
   7.1040000  25.0913000  49.8053000   5.4390000  19.9093000  28.4323000
   4.5320000  19.6123000  28.5093000   5.7170000  19.6123000  27.5663000
   7.0550000  14.4523000  34.5873000   6.2460000  14.1073000  34.9623000
   7.7440000  14.1433000  35.1753000   8.9850000  13.5303000  36.2093000
   9.5380000  13.9503000  36.8683000   9.2220000  12.6043000  36.2513000
   5.0080000  19.5193000  51.9893000   4.9070000  20.4683000  51.9213000
   4.7900000  19.1913000  51.1173000   4.2090000  16.7673000  28.5733000
   5.0710000  17.0933000  28.8333000   4.3940000  15.9813000  28.0613000
  12.3620000  15.6403000  35.7173000  11.7820000  16.2993000  35.3353000
  12.0960000  14.8183000  35.3063000  10.8130000  15.0413000  37.9193000
  11.3130000  15.1523000  37.1113000  11.4560000  14.7373000  38.5593000
   4.8710000  22.9493000  50.8063000   4.3880000  23.7493000  51.0123000
   4.9570000  22.9593000  49.8533000  11.1450000  17.8003000  34.7733000
  10.2570000  18.0853000  34.5553000  11.5600000  17.6403000  33.9253000
  14.4960000  17.8253000  38.4883000  15.2720000  18.3153000  38.7613000
  13.7710000  18.2513000  38.9453000  16.9340000  18.5383000  39.5453000
  17.5280000  18.2973000  38.8353000  17.0060000  17.8183000  40.1733000
  10.2890000  27.5653000  28.8673000  10.9930000  27.7703000  29.4833000
   9.5650000  28.1323000  29.1323000  11.1190000  23.3163000  34.9883000
  11.0630000  23.7733000  34.1483000  11.6720000  22.5553000  34.8103000
  14.9290000  19.1053000  35.8133000  14.6730000  18.7043000  36.6433000
  14.3050000  19.8193000  35.6883000  19.2410000  21.8443000  38.3203000
  18.6810000  21.9143000  39.0933000  18.6350000  21.6683000  37.6003000
  12.1980000  28.0033000  30.9173000  13.0320000  27.5713000  30.7353000
  12.0360000  27.8313000  31.8453000  11.8520000  24.5063000  32.2833000
  11.7970000  24.3413000  31.3423000  11.2270000  25.2143000  32.4393000
   9.1670000  26.8113000  51.6083000  10.0360000  26.9853000  51.2473000
   8.6880000  27.6303000  51.4863000   5.1620000  14.0073000  31.8613000
   5.1500000  14.9513000  32.0183000   6.0540000  13.8243000  31.5673000
   3.3360000  33.9313000  43.2873000   4.2380000  33.9633000  43.6043000
   3.1090000  33.0013000  43.3023000   5.0910000  32.6843000  39.9483000
   4.1410000  32.6843000  39.8353000   5.3940000  31.9373000  39.4323000
  20.8260000  38.5203000  41.0133000  21.4640000  38.4013000  40.3093000
  20.7080000  39.4683000  41.0723000  17.6350000  38.4733000  40.9493000
  17.2970000  38.3573000  40.0613000  18.5040000  38.0723000  40.9293000
  13.4940000  40.3263000  36.9393000  12.9300000  40.2353000  36.1703000
  13.3790000  39.5063000  37.4193000  11.0400000  41.8213000  39.7773000
  11.8330000  41.4803000  39.3623000  11.2800000  41.9313000  40.6973000
  19.0740000  43.9933000  32.2503000  18.4230000  44.5793000  31.8633000
  19.8680000  44.5243000  32.3103000  12.9990000  41.0823000  32.6493000
  13.7730000  40.5353000  32.5103000  13.3520000  41.9473000  32.8603000
  15.7640000  39.7883000  42.4463000  16.3600000  39.5633000  41.7313000
  15.8210000  39.0463000  43.0483000  15.3360000  37.2413000  30.2813000
  15.5890000  36.7203000  29.5193000  14.3990000  37.0783000  30.3833000
  20.5510000  41.6823000  32.7873000  19.9160000  41.7563000  33.4993000
  20.2210000  42.2723000  32.1093000  15.0560000  39.1443000  32.4833000
  14.9390000  38.4693000  33.1513000  15.1660000  38.6583000  31.6663000
  17.3990000  38.6053000  36.1883000  17.0350000  38.0783000  36.8993000
  18.2560000  38.2153000  36.0143000  17.0390000  33.6343000  31.1843000
  17.2070000  34.5023000  31.5513000  16.8490000  33.7973000  30.2603000
  13.2480000  38.5473000  38.8843000  12.3230000  38.4153000  39.0923000
  13.4970000  39.3273000  39.3813000  17.0180000  36.0903000  32.1693000
  16.8980000  36.5363000  33.0073000  16.3240000  36.4393000  31.6103000
  10.6090000  38.1913000  39.7193000  10.7380000  38.4443000  40.6323000
   9.9290000  38.7833000  39.3993000  14.7790000  48.8603000  35.8183000
  14.7010000  49.8113000  35.8963000  14.1750000  48.5153000  36.4753000
  17.2710000  36.0333000  48.4743000  16.4940000  36.5933000  48.4643000
  17.9100000  36.5193000  48.9953000  17.3540000  35.9223000  44.0063000
  18.2000000  36.3463000  44.1503000  17.2940000  35.2653000  44.7003000
  20.5040000  33.5823000  45.6643000  20.2600000  34.3373000  45.1283000
  20.7800000  33.9613000  46.4993000  16.8770000  41.2823000  37.6533000
  17.3400000  41.5613000  36.8633000  16.6120000  40.3813000  37.4703000
  13.7690000  40.8293000  40.5913000  14.3390000  41.2583000  39.9533000
  14.3600000  40.5483000  41.2893000  15.8140000  37.4053000  34.4623000
  16.5160000  37.8573000  34.9293000  15.4820000  36.7633000  35.0903000
  14.2620000  35.9963000  48.8373000  13.6310000  36.6773000  49.0713000
  14.1550000  35.8843000  47.8923000   9.5560000  35.6633000  39.7643000
   8.7660000  35.9193000  39.2883000  10.0470000  36.4783000  39.8693000
  11.5080000  36.0273000  36.7223000  10.7110000  36.1393000  37.2403000
  11.2800000  36.3663000  35.8563000   7.8400000  35.9163000  42.1953000
   8.0910000  36.8013000  42.4613000   8.3760000  35.7363000  41.4233000
  17.0530000  44.2193000  34.5383000  16.9170000  45.0643000  34.9673000
  17.5940000  44.4213000  33.7753000  13.5400000  30.2983000  51.2003000
  13.1460000  29.7443000  51.8743000  14.3560000  30.6093000  51.5903000
  10.5060000  41.7363000  35.1113000  11.0180000  42.5303000  35.2613000
  11.1580000  41.0393000  35.0443000  12.3150000  44.8533000  37.1933000
  12.4920000  45.7753000  37.0053000  13.1110000  44.5393000  37.6233000
  16.4560000  31.7143000  48.7923000  17.1970000  32.3143000  48.7123000
  16.6880000  30.9713000  48.2333000  11.6010000  36.8993000  47.0693000
  11.4860000  35.9983000  47.3703000  10.7450000  37.1463000  46.7183000
   8.4710000  40.0653000  35.8873000   9.3080000  40.4753000  35.6703000
   8.6490000  39.1253000  35.8573000  17.9520000  32.5783000  36.6343000
  17.0960000  32.1883000  36.4543000  18.3650000  32.6573000  35.7743000
  19.4820000  30.1123000  41.0333000  18.9780000  30.0753000  40.2203000
  19.7750000  31.0213000  41.0933000  15.7260000  30.1963000  40.0403000
  16.5910000  30.0003000  39.6803000  15.7940000  29.9673000  40.9663000
  18.6000000  41.7643000  35.0513000  18.0730000  41.0303000  34.7383000
  18.0990000  42.5423000  34.8053000  13.3320000  32.4263000  37.4113000
  13.9070000  32.2043000  36.6793000  13.9190000  32.4953000  38.1643000
  13.6590000  34.4573000  31.4313000  12.8230000  34.7943000  31.7523000
  13.5200000  34.3223000  30.4933000  15.6350000  29.3003000  36.1393000
  14.9810000  28.9853000  35.5143000  15.5930000  28.6783000  36.8653000
  16.7460000  39.5823000  28.0543000  15.8380000  39.3513000  28.2533000
  17.2430000  38.7863000  28.2413000  19.6520000  48.2923000  30.9743000
  18.9790000  48.5953000  31.5823000  20.0390000  49.0953000  30.6243000
  17.9250000  39.6843000  32.5763000  17.0160000  39.3993000  32.6743000
  17.9540000  40.1033000  31.7173000  23.1560000  43.2943000  36.3463000
  22.7030000  42.4533000  36.4023000  22.5260000  43.9303000  36.6833000
  22.2010000  27.0013000  38.1703000  22.5070000  26.1413000  37.8823000
  22.9260000  27.5933000  37.9703000   8.4930000  37.4043000  36.5583000
   8.2960000  36.8113000  35.8333000   7.9380000  37.0993000  37.2763000
  16.4730000  37.2963000  38.6773000  16.5280000  36.3443000  38.6023000
  15.6620000  37.4523000  39.1623000  17.6220000  41.2243000  29.9153000
  17.1840000  40.5083000  29.4563000  18.3630000  41.4523000  29.3543000
  14.4120000  35.9143000  36.4363000  13.5990000  36.2143000  36.8433000
  14.9080000  35.5203000  37.1543000  20.0100000  36.3783000  45.2683000
  20.3650000  36.6053000  46.1273000  20.6570000  36.7103000  44.6463000
  13.9040000  33.4863000  42.0533000  14.5440000  33.3453000  41.3553000
  13.0710000  33.1993000  41.6763000  14.6800000  42.7863000  38.1663000
  15.4740000  42.2913000  37.9643000  13.9690000  42.2583000  37.8033000
  10.9880000  36.9313000  34.2423000  10.0580000  36.8693000  34.4593000
  11.0840000  36.4083000  33.4463000  10.9070000  33.4563000  36.8303000
  11.1670000  34.3713000  36.7213000  11.7280000  32.9883000  36.9803000
  12.3790000  34.8703000  44.0003000  13.0510000  34.6623000  43.3513000
  11.5520000  34.6723000  43.5603000  18.2820000  31.4963000  46.0163000
  17.6340000  32.1953000  45.9233000  19.0520000  31.9303000  46.3843000
  18.4580000  39.3343000  44.0763000  19.3870000  39.4853000  43.9033000
  18.0370000  39.4223000  43.2213000  17.8520000  48.4603000  33.1883000
  18.0270000  47.9893000  34.0033000  17.1650000  49.0873000  33.4173000
  12.7820000  38.1443000  44.7603000  12.6440000  37.4123000  45.3613000
  13.6920000  38.0553000  44.4783000  15.4100000  37.8563000  44.2483000
  16.1200000  37.2153000  44.2073000  15.3670000  38.1073000  45.1713000
  14.1230000  34.8433000  46.0683000  13.5870000  34.3923000  46.7203000
  13.5350000  34.9773000  45.3253000  12.4180000  51.6093000  39.9623000
  12.6570000  52.2413000  40.6403000  11.5750000  51.2583000  40.2493000
  13.5330000  34.3013000  28.6313000  12.6560000  34.1803000  28.2673000
  14.0090000  33.5103000  28.3783000   5.0530000  39.0893000  38.7253000
   5.7400000  38.7753000  38.1373000   4.8980000  39.9933000  38.4513000
   9.8570000  33.9783000  43.1533000   9.7730000  33.3713000  42.4183000
   9.0350000  34.4693000  43.1543000  16.7190000  46.6543000  35.8773000
  15.9360000  47.1963000  35.9713000  17.4190000  47.1713000  36.2763000
  16.6130000  34.6053000  38.2473000  16.2420000  34.0523000  38.9353000
  17.1090000  34.0013000  37.6953000  22.5670000  43.4073000  33.6283000
  22.8430000  43.2923000  34.5373000  21.6970000  43.0093000  33.5893000
  22.2420000  37.6193000  43.1683000  21.5890000  37.8673000  42.5133000
  22.6200000  36.8063000  42.8343000  19.5370000  46.5823000  34.5323000
  20.0650000  46.0713000  33.9203000  19.7990000  46.2663000  35.3973000
  10.0380000  44.5993000  42.2763000  10.6240000  43.8533000  42.4093000
   9.8410000  44.9093000  43.1603000  12.8920000  47.6343000  37.2923000
  12.2230000  48.1183000  36.8093000  12.7530000  47.8813000  38.2073000
   4.6300000  37.1693000  40.9963000   4.6690000  36.6363000  41.7903000
   4.1240000  36.6433000  40.3783000  12.0090000  32.0163000  44.4933000
  12.0730000  32.8773000  44.0803000  11.9460000  31.4033000  43.7603000
  11.4840000  34.0883000  48.1403000  12.1120000  33.7063000  48.7543000
  10.6270000  33.8693000  48.5063000   8.2610000  35.8963000  34.0723000
   8.5560000  34.9873000  34.0193000   7.3600000  35.8743000  33.7503000
  11.7900000  33.9713000  40.0553000  11.0690000  34.5853000  39.9153000
  12.5800000  34.5073000  39.9763000  14.5930000  31.3073000  46.3293000
  15.1160000  31.5533000  47.0913000  14.3740000  32.1393000  45.9093000
   9.9900000  33.5773000  34.1963000   9.6610000  32.6973000  34.0133000
  10.3440000  33.5223000  35.0833000  13.1040000  33.8643000  34.5633000
  13.4440000  34.3933000  33.8413000  13.5510000  34.2023000  35.3393000
  15.7980000  32.2483000  44.0143000  15.4580000  31.4493000  44.4163000
  15.0920000  32.5483000  43.4413000  16.4500000  29.3333000  42.4663000
  17.2730000  28.8593000  42.3443000  16.6940000  30.1123000  42.9663000
  15.0910000  32.3623000  32.7633000  15.8120000  32.7403000  32.2593000
  14.4670000  33.0813000  32.8663000  13.9740000  36.0253000  40.2763000
  13.8280000  36.3393000  41.1683000  13.4960000  36.6433000  39.7233000
  15.8330000  33.0153000  40.3243000  15.8200000  32.1193000  39.9873000
  16.5510000  33.0223000  40.9573000  17.6860000  33.4493000  42.3693000
  17.4280000  34.3713000  42.3673000  17.1550000  33.0523000  43.0593000
   8.4480000  38.5653000  43.2143000   7.9040000  39.3413000  43.3463000
   9.3260000  38.9123000  43.0563000  15.2370000  31.8973000  35.5923000
  15.3590000  30.9683000  35.7923000  14.9470000  31.9103000  34.6803000
  18.1060000  29.5823000  38.7293000  18.1280000  29.6463000  37.7743000
  18.5230000  28.7423000  38.9233000  23.6180000  45.8713000  32.2483000
  24.3130000  46.4913000  32.4663000  23.9600000  45.0203000  32.5233000
   9.2350000  37.6923000  46.1073000   8.4930000  37.8413000  46.6943000
   8.9140000  37.9533000  45.2443000  25.5170000  43.3213000  33.7763000
  26.0420000  43.6593000  33.0513000  25.4300000  42.3853000  33.5933000
  17.2010000  49.3883000  38.1363000  16.7620000  48.8953000  38.8293000
  17.9520000  48.8453000  37.8953000   9.6810000  45.5793000  38.1383000
  10.5060000  45.2793000  37.7583000   9.3300000  44.8103000  38.5873000
   7.8810000  43.4983000  39.0973000   7.0450000  43.0703000  38.9163000
   7.8540000  43.6913000  40.0343000  14.7210000  33.4103000  49.8013000
  14.7700000  34.2863000  49.4193000  15.2630000  32.8673000  49.2293000
  14.2100000  43.4823000  33.6843000  14.3590000  44.1663000  33.0313000
  15.0170000  43.4623000  34.1993000  16.9510000  34.1633000  46.5563000
  16.0810000  34.4563000  46.2843000  17.1870000  34.7473000  47.2773000
  11.9650000  39.5083000  34.6903000  11.7200000  38.6053000  34.8883000
  12.1350000  39.5103000  33.7483000  19.6550000  30.3813000  44.0733000
  20.1730000  31.1173000  43.7473000  19.3010000  30.6873000  44.9073000
  11.2350000  35.2413000  32.1893000  10.5420000  35.3163000  31.5333000
  10.9900000  34.4773000  32.7113000  19.9060000  26.8013000  39.5933000
  20.1860000  26.1333000  40.2193000  20.6910000  26.9943000  39.0803000
  17.7100000  45.9773000  31.1553000  17.1370000  46.5963000  30.7023000
  18.2830000  46.5273000  31.6893000  21.7990000  32.3083000  43.5263000
  21.2040000  32.5893000  42.8303000  21.5140000  32.7983000  44.2973000
  20.9290000  46.2603000  32.2863000  21.8620000  46.1953000  32.4893000
  20.8420000  47.0963000  31.8273000  23.5580000  45.5773000  29.2463000
  23.4800000  45.2433000  30.1403000  24.3790000  46.0693000  29.2463000
  18.0940000  37.3133000  28.4973000  19.0400000  37.1833000  28.5663000
  17.7160000  36.5743000  28.9743000  16.2790000  35.2383000  28.4323000
  15.3720000  34.9413000  28.5093000  16.5560000  34.9413000  27.5663000
   7.1960000  36.5583000  38.8823000   6.8770000  35.7053000  38.5903000
   6.6500000  36.7733000  39.6383000  10.9740000  39.2753000  42.5993000
  11.1930000  40.2063000  42.6183000  11.3870000  38.9163000  43.3853000
  17.8950000  29.7823000  34.5873000  17.0850000  29.4363000  34.9623000
  18.5830000  29.4723000  35.1753000  19.8240000  28.8593000  36.2093000
  20.3770000  29.2793000  36.8683000  20.0610000  27.9333000  36.2513000
  15.8470000  34.8483000  51.9893000  15.7470000  35.7973000  51.9213000
  15.6290000  34.5203000  51.1173000  15.0490000  32.0973000  28.5733000
  15.9100000  32.4223000  28.8333000  15.2340000  31.3103000  28.0613000
   7.0650000  40.1793000  40.8513000   6.3720000  39.7643000  40.3383000
   7.8130000  40.2213000  40.2553000   8.9790000  40.1113000  38.7283000
   8.9560000  40.2093000  37.7763000   9.2890000  40.9573000  39.0503000
  11.6380000  42.1683000  42.8433000  12.5920000  42.1373000  42.7763000
  11.4390000  41.7073000  43.6583000  12.2280000  40.7383000  45.4103000
  13.0470000  41.2333000  45.4333000  12.5010000  39.8223000  45.3823000
   9.9930000  47.7103000  39.8603000   9.8580000  46.9503000  39.2943000
   9.5760000  48.4343000  39.3933000  21.1290000  42.8943000  28.8673000
  21.8320000  43.0993000  29.4833000  20.4050000  43.4623000  29.1323000
  23.0370000  43.3323000  30.9173000  23.8720000  42.9003000  30.7353000
  22.8760000  43.1603000  31.8453000   7.4810000  35.0723000  46.1093000
   8.1270000  34.5623000  46.5983000   7.2730000  35.8093000  46.6833000
  16.0010000  29.3363000  31.8613000  15.9890000  30.2803000  32.0183000
  16.8940000  29.1533000  31.5673000  19.8170000  25.9303000  36.1163000
  19.0500000  25.3763000  36.2623000  20.2280000  26.0033000  36.9773000
  11.8210000  32.2193000  50.2073000  12.6840000  31.8633000  50.4173000
  11.2470000  31.8803000  50.8943000  24.3330000  55.6553000  36.9393000
  23.7700000  55.5643000  36.1703000  24.2190000  54.8353000  37.4193000
  28.9570000  54.9553000  46.9083000  28.9450000  54.5613000  46.0363000
  29.1190000  54.2223000  47.5013000  21.8800000  57.1513000  39.7773000
  22.6720000  56.8103000  39.3623000  22.1190000  57.2603000  40.6973000
  29.9130000  59.3223000  32.2503000  29.2620000  59.9083000  31.8633000
  30.7080000  59.8533000  32.3103000  23.8390000  56.4113000  32.6493000
  24.6120000  55.8643000  32.5103000  24.1910000  57.2763000  32.8603000
  25.6770000  57.7393000  45.8553000  25.3860000  58.6443000  45.7403000
  26.3130000  57.7813000  46.5703000  26.6030000  55.1173000  42.4463000
  27.1990000  54.8923000  41.7313000  26.6600000  54.3753000  43.0483000
  26.1750000  52.5713000  30.2813000  26.4280000  52.0493000  29.5193000
  25.2380000  52.4073000  30.3833000  31.3910000  57.0123000  32.7873000
  30.7550000  57.0853000  33.4993000  31.0610000  57.6013000  32.1093000
  25.8950000  54.4733000  32.4833000  25.7790000  53.7983000  33.1513000
  26.0050000  53.9873000  31.6663000  28.2380000  53.9343000  36.1883000
  27.8740000  53.4083000  36.8993000  29.0950000  53.5443000  36.0143000
  27.8790000  48.9633000  31.1843000  28.0460000  49.8323000  31.5513000
  27.6890000  49.1263000  30.2603000  30.6360000  57.4253000  42.8503000
  30.3360000  58.3283000  42.7423000  30.2910000  57.1583000  43.7033000
  24.0880000  53.8773000  38.8843000  23.1630000  53.7443000  39.0923000
  24.3360000  54.6563000  39.3813000  27.8580000  51.4193000  32.1693000
  27.7380000  51.8653000  33.0073000  27.1630000  51.7683000  31.6103000
  25.6180000  64.1903000  35.8183000  25.5410000  65.1403000  35.8963000
  25.0150000  63.8443000  36.4753000  31.8400000  56.3143000  46.6333000
  32.2490000  55.8723000  45.8883000  31.1180000  55.7393000  46.8863000
  32.1630000  56.8743000  40.3883000  31.5340000  57.0393000  39.6863000
  31.7760000  57.2883000  41.1593000  27.7160000  56.6113000  37.6533000
  28.1800000  56.8903000  36.8633000  27.4520000  55.7103000  37.4703000
  24.6080000  56.1593000  40.5913000  25.1790000  56.5873000  39.9533000
  25.1990000  55.8773000  41.2893000  26.6530000  52.7343000  34.4623000
  27.3550000  53.1863000  34.9293000  26.3210000  52.0923000  35.0903000
  34.4120000  58.3333000  42.5143000  35.2340000  57.9313000  42.2323000
  34.4080000  58.2293000  43.4663000  28.1770000  57.8813000  44.6703000
  28.2420000  58.3433000  45.5063000  27.4690000  57.2513000  44.7983000
  27.8920000  59.5483000  34.5383000  27.7570000  60.3933000  34.9673000
  28.4330000  59.7503000  33.7753000  21.3450000  57.0653000  35.1113000
  21.8580000  57.8603000  35.2613000  21.9970000  56.3683000  35.0443000
  23.1550000  60.1823000  37.1933000  23.3310000  61.1043000  37.0053000
  23.9500000  59.8683000  37.6233000  29.5190000  60.1703000  48.6683000
  29.0750000  59.3843000  48.3503000  30.1810000  60.3583000  48.0033000
  24.2780000  61.7003000  43.1943000  24.8290000  61.5713000  42.4223000
  23.4390000  61.9993000  42.8443000  31.6170000  60.4503000  46.6963000
  31.5990000  61.2713000  46.2043000  32.5390000  60.3263000  46.9213000
  28.0750000  57.9653000  47.5393000  28.6070000  57.2043000  47.3093000
  27.5460000  57.6723000  48.2813000  19.3100000  55.3943000  35.8873000
  20.1480000  55.8043000  35.6703000  19.4880000  54.4543000  35.8573000
  31.2070000  53.0623000  31.5753000  30.6910000  53.8323000  31.8143000
  30.9340000  52.3883000  32.1993000  36.1800000  55.8153000  33.5113000
  35.4030000  55.4763000  33.0663000  36.8590000  55.8203000  32.8363000
  29.4400000  57.0933000  35.0513000  28.9120000  56.3593000  34.7383000
  28.9390000  57.8713000  34.8053000  24.4990000  49.7863000  31.4313000
  23.6620000  50.1233000  31.7523000  24.3590000  49.6513000  30.4933000
  27.5850000  54.9113000  28.0543000  26.6780000  54.6803000  28.2533000
  28.0820000  54.1153000  28.2413000  30.4920000  63.6213000  30.9743000
  29.8180000  63.9243000  31.5823000  30.8780000  64.4243000  30.6243000
  28.7640000  55.0133000  32.5763000  27.8550000  54.7293000  32.6743000
  28.7930000  55.4333000  31.7173000  33.9960000  58.6233000  36.3463000
  33.5420000  57.7833000  36.4023000  33.3650000  59.2603000  36.6833000
  32.4390000  60.4613000  37.2813000  32.7310000  61.0223000  36.5623000
  32.9490000  60.7543000  38.0363000  19.3330000  52.7333000  36.5583000
  19.1350000  52.1403000  35.8333000  18.7770000  52.4293000  37.2763000
  28.4610000  56.5543000  29.9153000  28.0230000  55.8373000  29.4563000
  29.2030000  56.7813000  29.3543000  27.4020000  61.2393000  38.3703000
  27.3600000  61.4653000  37.4413000  28.3190000  61.0053000  38.5183000
  25.5190000  58.1153000  38.1663000  26.3130000  57.6203000  37.9643000
  24.8080000  57.5873000  37.8033000  30.3390000  60.4973000  42.5173000
  30.3920000  61.0663000  43.2853000  29.4700000  60.6673000  42.1533000
  21.8270000  52.2603000  34.2423000  20.8970000  52.1983000  34.4593000
  21.9230000  51.7373000  33.4463000  37.4670000  56.9393000  43.5173000
  37.6610000  57.8443000  43.7633000  37.3670000  56.4803000  44.3513000
  32.5290000  57.0903000  49.0913000  32.3770000  56.8613000  48.1743000
  32.5190000  58.0473000  49.1043000  28.0960000  58.6883000  41.8463000
  27.9570000  58.3203000  42.7183000  27.3080000  59.2033000  41.6743000
  28.6910000  63.7893000  33.1883000  28.8660000  63.3183000  34.0033000
  28.0040000  64.4163000  33.4173000  29.6470000  58.0663000  39.2353000
  29.3120000  58.0273000  40.1303000  29.1470000  57.4013000  38.7623000
  32.5830000  55.4123000  29.5083000  31.9660000  54.6873000  29.4123000
  32.1140000  56.1733000  29.1653000  34.2380000  60.1223000  47.1693000
  34.1790000  59.4383000  46.5023000  34.6400000  60.8643000  46.7173000
  23.2570000  66.9383000  39.9623000  23.4970000  67.5703000  40.6403000
  22.4140000  66.5873000  40.2493000  24.3720000  49.6313000  28.6313000
  23.4950000  49.5093000  28.2673000  24.8480000  48.8393000  28.3783000
  34.2400000  58.0863000  45.4003000  33.3520000  57.7493000  45.5233000
  34.8100000  57.3543000  45.6373000  15.8930000  54.4183000  38.7253000
  16.5800000  54.1043000  38.1373000  15.7370000  55.3223000  38.4513000
  27.7700000  62.7463000  42.3673000  27.6970000  63.5523000  42.8783000
  27.3280000  62.9453000  41.5413000  27.5590000  61.9833000  35.8773000
  26.7760000  62.5253000  35.9713000  28.2580000  62.5013000  36.2763000
  30.2300000  62.6453000  44.5223000  30.9430000  63.2793000  44.4503000
  29.7390000  62.7413000  43.7063000  31.9520000  56.5503000  36.0943000
  31.0170000  56.6703000  35.9253000  32.1290000  55.6473000  35.8303000
  25.2810000  60.3943000  45.3433000  25.9820000  61.0283000  45.4963000
  24.8100000  60.7363000  44.5823000  33.4060000  58.7363000  33.6283000
  33.6820000  58.6223000  34.5373000  32.5370000  58.3383000  33.5893000
  30.0420000  62.9853000  37.2713000  30.2240000  62.1673000  37.7343000
  30.8650000  63.2013000  36.8333000  30.3760000  61.9113000  34.5323000
  30.9050000  61.4013000  33.9203000  30.6390000  61.5963000  35.3973000
  20.8780000  59.9283000  42.2763000  21.4630000  59.1823000  42.4093000
  20.6800000  60.2383000  43.1603000  23.7320000  62.9633000  37.2923000
  23.0630000  63.4483000  36.8093000  23.5930000  63.2103000  38.2073000
  15.4690000  52.4983000  40.9963000  15.5080000  51.9653000  41.7903000
  14.9640000  51.9723000  40.3783000  27.8720000  64.9973000  43.8913000
  28.4240000  65.1603000  44.6553000  28.2130000  65.5883000  43.2193000
  32.7230000  59.8233000  49.7453000  33.2670000  60.4363000  49.2513000
  32.1420000  60.3813000  50.2623000  19.1000000  51.2253000  34.0723000
  19.3960000  50.3163000  34.0193000  18.1990000  51.2043000  33.7503000
  31.0090000  62.9463000  40.8773000  30.8840000  62.1443000  40.3683000
  31.6670000  63.4403000  40.3883000  33.0720000  60.7463000  42.5053000
  32.1250000  60.6273000  42.4333000  33.4210000  59.8593000  42.5873000
  20.8290000  48.9063000  34.1963000  20.5000000  48.0263000  34.0133000
  21.1830000  48.8513000  35.0833000  30.0770000  60.5423000  38.7053000
  29.9300000  59.6133000  38.8863000  30.9020000  60.5643000  38.2213000
  33.6800000  61.3653000  39.7923000  34.6050000  61.1593000  39.6543000
  33.5120000  61.1163000  40.7013000  25.9300000  47.6913000  32.7633000
  26.6510000  48.0693000  32.2593000  25.3070000  48.4103000  32.8663000
  33.4700000  61.8833000  35.1483000  33.6440000  61.3183000  34.3953000
  33.9630000  62.6833000  34.9663000  34.4580000  61.2003000  32.2483000
  35.1530000  61.8203000  32.4663000  34.8000000  60.3493000  32.5233000
  36.3570000  58.6503000  33.7763000  36.8820000  58.9883000  33.0513000
  36.2690000  57.7143000  33.5933000  28.0190000  62.5633000  45.9053000
  28.3270000  62.3183000  46.7783000  28.8160000  62.7683000  45.4173000
  28.0410000  64.7173000  38.1363000  27.6010000  64.2253000  38.8293000
  28.7920000  64.1743000  37.8953000  20.5200000  60.9083000  38.1383000
  21.3460000  60.6083000  37.7583000  20.1690000  60.1393000  38.5873000
  25.4880000  60.2613000  40.2083000  24.8660000  59.5983000  39.9083000
  26.1590000  60.2873000  39.5263000  18.7210000  58.8273000  39.0973000
  17.8840000  58.3993000  38.9163000  18.6930000  59.0203000  40.0343000
  36.0460000  59.2833000  49.0823000  35.2560000  59.2653000  48.5423000
  35.8090000  59.8223000  49.8363000  36.1660000  56.1323000  46.3953000
  36.2160000  55.9673000  47.3363000  36.0570000  55.2653000  46.0053000
  25.0490000  58.8113000  33.6843000  25.1980000  59.4953000  33.0313000
  25.8560000  58.7923000  34.1993000  37.6680000  58.5523000  46.6393000
  37.3760000  58.9153000  47.4753000  37.0550000  57.8393000  46.4603000
  22.8050000  54.8383000  34.6903000  22.5590000  53.9343000  34.8883000
  22.9740000  54.8393000  33.7483000  22.0740000  50.5713000  32.1893000
  21.3810000  50.6453000  31.5333000  21.8290000  49.8073000  32.7113000
  28.5490000  61.3063000  31.1553000  27.9760000  61.9253000  30.7023000
  29.1220000  61.8563000  31.6893000  31.7690000  61.5903000  32.2863000
  32.7020000  61.5243000  32.4893000  31.6810000  62.4253000  31.8273000
  34.3980000  60.9063000  29.2463000  34.3190000  60.5723000  30.1403000
  35.2190000  61.3983000  29.2463000  28.9340000  52.6423000  28.4973000
  29.8800000  52.5133000  28.5663000  28.5550000  51.9043000  28.9743000
  42.9130000  54.8343000  41.5953000  43.6430000  54.5733000  42.1553000
  42.3040000  54.0973000  41.6353000  28.8180000  56.6943000  49.9573000
  29.7380000  56.8723000  50.1513000  28.7830000  55.7493000  49.8053000
  27.1180000  50.5673000  28.4323000  26.2110000  50.2703000  28.5093000
  27.3960000  50.2703000  27.5663000  18.0360000  51.8883000  38.8823000
  17.7160000  51.0343000  38.5903000  17.4890000  52.1033000  39.6383000
  25.8880000  47.4263000  28.5733000  26.7500000  47.7513000  28.8333000
  26.0730000  46.6393000  28.0613000  17.9050000  55.5083000  40.8513000
  17.2110000  55.0933000  40.3383000  18.6520000  55.5503000  40.2553000
  19.8180000  55.4403000  38.7283000  19.7950000  55.5393000  37.7763000
  20.1280000  56.2863000  39.0503000  22.4770000  57.4973000  42.8433000
  23.4310000  57.4663000  42.7763000  22.2780000  57.0363000  43.6583000
  20.8320000  63.0393000  39.8603000  20.6980000  62.2793000  39.2943000
  20.4150000  63.7633000  39.3933000  23.9890000  63.9363000  40.0723000
  23.8720000  64.8813000  39.9693000  23.1680000  63.6343000  40.4603000
  33.8770000  58.6613000  30.9173000  34.7110000  58.2293000  30.7353000
  33.7150000  58.4903000  31.8453000  33.5310000  55.1653000  32.2833000
  33.4760000  54.9993000  31.3423000  32.9060000  55.8723000  32.4393000
  30.8460000  57.4693000  51.6083000  31.7150000  57.6433000  51.2473000
  30.3660000  58.2893000  51.4863000  25.0140000  64.5893000  43.2873000
  25.9170000  64.6213000  43.6043000  24.7880000  63.6593000  43.3023000
  26.7700000  63.3423000  39.9483000  25.8190000  63.3423000  39.8353000
  27.0730000  62.5963000  39.4323000  42.5050000  69.1783000  41.0133000
  43.1430000  69.0593000  40.3093000  42.3870000  70.1263000  41.0723000
  39.3140000  69.1313000  40.9493000  38.9760000  69.0153000  40.0613000
  40.1830000  68.7303000  40.9293000  35.1730000  70.9853000  36.9393000
  34.6090000  70.8943000  36.1703000  35.0580000  70.1653000  37.4193000
  39.7960000  70.2853000  46.9083000  39.7850000  69.8903000  46.0363000
  39.9580000  69.5513000  47.5013000  34.6780000  71.7413000  32.6493000
  35.4510000  71.1933000  32.5103000  35.0310000  72.6053000  32.8603000
  37.4420000  70.4463000  42.4463000  38.0390000  70.2223000  41.7313000
  37.5000000  69.7043000  43.0483000  37.0150000  67.9003000  30.2813000
  37.2670000  67.3783000  29.5193000  36.0770000  67.7363000  30.3833000
  42.0590000  66.9033000  38.0883000  42.8450000  66.4853000  37.7373000
  42.3230000  67.8083000  38.2563000  42.2300000  72.3413000  32.7873000
  41.5950000  72.4143000  33.4993000  41.9000000  72.9303000  32.1093000
  47.4600000  66.8413000  38.9913000  48.1930000  66.2713000  39.2253000
  46.7040000  66.4533000  39.4323000  36.7340000  69.8033000  32.4833000
  36.6180000  69.1273000  33.1513000  36.8450000  69.3163000  31.6663000
  39.0780000  69.2643000  36.1883000  38.7130000  68.7373000  36.8993000
  39.9340000  68.8743000  36.0143000  44.9830000  60.5533000  43.4513000
  44.6510000  61.4233000  43.2273000  44.3870000  60.2373000  44.1303000
  38.7180000  64.2933000  31.1843000  38.8860000  65.1613000  31.5513000
  38.5280000  64.4553000  30.2603000  41.4760000  72.7543000  42.8503000
  41.1760000  73.6573000  42.7423000  41.1310000  72.4883000  43.7033000
  34.9270000  69.2063000  38.8843000  34.0020000  69.0733000  39.0923000
  35.1750000  69.9853000  39.3813000  44.8750000  65.2733000  40.5303000
  43.9670000  65.2043000  40.2363000  44.8240000  65.7503000  41.3583000
  38.6970000  66.7483000  32.1693000  38.5770000  67.1943000  33.0073000
  38.0020000  67.0973000  31.6103000  32.2880000  68.8493000  39.7193000
  32.4170000  69.1033000  40.6323000  31.6080000  69.4423000  39.3993000
  38.9500000  66.6923000  48.4743000  38.1730000  67.2513000  48.4643000
  39.5890000  67.1773000  48.9953000  46.7420000  63.4743000  42.3083000
  46.0990000  63.7683000  41.6623000  46.2370000  63.3603000  43.1133000
  44.3960000  67.2213000  32.9973000  45.3070000  67.4533000  32.8213000
  43.8870000  67.8043000  32.4343000  37.2040000  69.5003000  48.0353000
  37.9460000  70.0393000  47.7593000  36.4980000  70.1273000  48.1933000
  42.6800000  71.6433000  46.6333000  43.0880000  71.2013000  45.8883000
  41.9570000  71.0683000  46.8863000  39.0330000  66.5803000  44.0063000
  39.8790000  67.0043000  44.1503000  38.9730000  65.9243000  44.7003000
  43.0030000  72.2033000  40.3883000  42.3730000  72.3683000  39.6863000
  42.6150000  72.6173000  41.1593000  46.8810000  73.1393000  37.7423000
  46.1970000  73.5183000  37.1923000  46.9660000  73.7483000  38.4763000
  42.1830000  64.2413000  45.6643000  41.9390000  64.9953000  45.1283000
  42.4590000  64.6193000  46.4993000  44.1370000  70.7853000  44.3423000
  44.3480000  71.4283000  43.6653000  44.0900000  69.9513000  43.8743000
  41.7390000  63.3963000  41.2463000  40.8780000  63.6953000  41.5373000
  41.7650000  63.6133000  40.3143000  38.5550000  71.9413000  37.6533000
  39.0190000  72.2193000  36.8633000  38.2910000  71.0393000  37.4703000
  35.4480000  71.4883000  40.5913000  36.0180000  71.9163000  39.9533000
  36.0390000  71.2063000  41.2893000  37.4920000  68.0633000  34.4623000
  38.1950000  68.5153000  34.9293000  37.1600000  67.4213000  35.0903000
  35.9400000  66.6543000  48.8373000  35.3100000  67.3363000  49.0713000
  35.8340000  66.5423000  47.8923000  31.2350000  66.3213000  39.7643000
  30.4450000  66.5773000  39.2883000  31.7260000  67.1363000  39.8693000
  45.2510000  73.6623000  42.5143000  46.0730000  73.2603000  42.2323000
  45.2470000  73.5593000  43.4663000  33.1860000  66.6863000  36.7223000
  32.3890000  66.7983000  37.2403000  32.9590000  67.0243000  35.8563000
  39.0170000  73.2103000  44.6703000  39.0810000  73.6723000  45.5063000
  38.3080000  72.5803000  44.7983000  29.5190000  66.5743000  42.1953000
  29.7690000  67.4593000  42.4613000  30.0550000  66.3953000  41.4233000
  53.3420000  70.0063000  38.8633000  52.5880000  69.4363000  38.7073000
  53.4770000  69.9723000  39.8103000  35.2180000  60.9563000  51.2003000
  34.8250000  60.4033000  51.8743000  36.0350000  61.2673000  51.5903000
  38.1350000  62.3723000  48.7923000  38.8760000  62.9733000  48.7123000
  38.3670000  61.6303000  48.2333000  33.2790000  67.5583000  47.0693000
  33.1650000  66.6563000  47.3703000  32.4240000  67.8043000  46.7183000
  38.9140000  73.2943000  47.5393000  39.4470000  72.5333000  47.3093000
  38.3850000  73.0013000  48.2813000  42.0810000  58.4003000  43.0683000
  41.7370000  59.2903000  42.9923000  42.4490000  58.2103000  42.2053000
  30.1490000  70.7233000  35.8873000  30.9870000  71.1333000  35.6703000
  30.3270000  69.7833000  35.8573000  42.0460000  68.3913000  31.5753000
  41.5310000  69.1613000  31.8143000  41.7740000  67.7173000  32.1993000
  39.6310000  63.2363000  36.6343000  38.7750000  62.8473000  36.4543000
  40.0430000  63.3153000  35.7743000  41.1610000  60.7713000  41.0333000
  40.6570000  60.7343000  40.2203000  41.4540000  61.6803000  41.0933000
  37.4050000  60.8543000  40.0403000  38.2700000  60.6593000  39.6803000
  37.4730000  60.6253000  40.9663000  47.0190000  71.1443000  33.5113000
  46.2420000  70.8053000  33.0663000  47.6980000  71.1493000  32.8363000
  41.8350000  66.2643000  33.4013000  41.5300000  66.5783000  34.2523000
  42.7880000  66.3423000  33.4443000  40.2790000  72.4233000  35.0513000
  39.7510000  71.6883000  34.7383000  39.7780000  73.2003000  34.8053000
  45.2580000  70.6183000  40.1673000  44.6010000  71.3073000  40.2553000
  46.0630000  71.0073000  40.5113000  35.0110000  63.0853000  37.4113000
  35.5850000  62.8623000  36.6793000  35.5980000  63.1533000  38.1643000
  44.0690000  68.9723000  38.2183000  44.5820000  69.6053000  38.7203000
  44.7190000  68.3723000  37.8523000  35.3380000  65.1153000  31.4313000
  34.5020000  65.4533000  31.7523000  35.1980000  64.9803000  30.4933000
  37.3130000  59.9593000  36.1393000  36.6600000  59.6443000  35.5143000
  37.2710000  59.3363000  36.8653000  38.4240000  70.2413000  28.0543000
  37.5170000  70.0103000  28.2533000  38.9220000  69.4443000  28.2413000
  40.5470000  66.4473000  40.4633000  39.6290000  66.6683000  40.3063000
  40.9630000  66.5223000  39.6053000  41.3310000  67.8463000  35.5943000
  42.0780000  68.3583000  35.2843000  41.6000000  67.5243000  36.4543000
  39.6030000  70.3423000  32.5763000  38.6940000  70.0583000  32.6743000
  39.6330000  70.7623000  31.7173000  44.8350000  73.9533000  36.3463000
  44.3810000  73.1123000  36.4023000  44.2050000  74.5893000  36.6833000
  43.7780000  64.8823000  37.5763000  43.0410000  64.3703000  37.9073000
  44.0310000  64.4423000  36.7643000  43.8800000  57.6593000  38.1703000
  44.1860000  56.7993000  37.8823000  44.6050000  58.2513000  37.9703000
  30.1720000  68.0623000  36.5583000  29.9750000  67.4693000  35.8333000
  29.6170000  67.7583000  37.2763000  38.1520000  67.9553000  38.6773000
  38.2070000  67.0023000  38.6023000  37.3410000  68.1113000  39.1623000
  39.3010000  71.8833000  29.9153000  38.8630000  71.1663000  29.4563000
  40.0420000  72.1103000  29.3543000  36.0910000  66.5733000  36.4363000
  35.2780000  66.8723000  36.8433000  36.5870000  66.1783000  37.1543000
  41.6880000  67.0373000  45.2683000  42.0430000  67.2643000  46.1273000
  42.3360000  67.3693000  44.6463000  47.4180000  70.1593000  35.9733000
  47.2800000  70.3493000  35.0453000  47.0620000  70.9203000  36.4303000
  35.5820000  64.1443000  42.0533000  36.2220000  64.0033000  41.3553000
  34.7500000  63.8583000  41.6763000  47.4450000  72.2263000  40.9843000
  47.8790000  72.1343000  41.8323000  48.1580000  72.2023000  40.3463000
  32.6670000  67.5893000  34.2423000  31.7360000  67.5273000  34.4593000
  32.7620000  67.0663000  33.4463000  32.5850000  64.1143000  36.8303000
  32.8460000  65.0293000  36.7213000  33.4070000  63.6473000  36.9803000
  34.0580000  65.5283000  44.0003000  34.7300000  65.3203000  43.3513000
  33.2310000  65.3303000  43.5603000  48.3070000  72.2693000  43.5173000
  48.5000000  73.1733000  43.7633000  48.2070000  71.8093000  44.3513000
  39.9600000  62.1543000  46.0163000  39.3130000  62.8533000  45.9233000
  40.7300000  62.5883000  46.3843000  43.3680000  72.4193000  49.0913000
  43.2170000  72.1903000  48.1743000  43.3590000  73.3763000  49.1043000
  40.1370000  69.9923000  44.0763000  41.0660000  70.1443000  43.9033000
  39.7160000  70.0813000  43.2213000  40.4860000  73.3963000  39.2353000
  40.1510000  73.3563000  40.1303000  39.9860000  72.7303000  38.7623000
  34.4600000  68.8023000  44.7603000  34.3220000  68.0703000  45.3613000
  35.3710000  68.7133000  44.4783000  43.4220000  70.7413000  29.5083000
  42.8050000  70.0163000  29.4123000  42.9540000  71.5023000  29.1653000
  37.0890000  68.5143000  44.2483000  37.7990000  67.8743000  44.2073000
  37.0460000  68.7663000  45.1713000  35.8020000  65.5013000  46.0683000
  35.2650000  65.0503000  46.7203000  35.2130000  65.6363000  45.3253000
  35.2120000  64.9603000  28.6313000  34.3350000  64.8393000  28.2673000
  35.6880000  64.1683000  28.3783000  45.0790000  73.4153000  45.4003000
  44.1920000  73.0783000  45.5233000  45.6490000  72.6833000  45.6373000
  31.5360000  64.6373000  43.1533000  31.4510000  64.0293000  42.4183000
  30.7140000  65.1273000  43.1543000  41.7080000  63.1223000  38.5203000
  42.2050000  62.3693000  38.2003000  40.9370000  63.1583000  37.9553000
  49.5610000  68.8263000  40.1623000  49.5500000  69.7083000  39.7913000
  48.6930000  68.4733000  39.9683000  42.7910000  71.8793000  36.0943000
  41.8570000  71.9993000  35.9253000  42.9690000  70.9763000  35.8303000
  38.2910000  65.2643000  38.2473000  37.9210000  64.7113000  38.9353000
  38.7870000  64.6593000  37.6953000  46.1780000  67.7213000  36.6293000
  46.6440000  68.5543000  36.5553000  46.6290000  67.2553000  37.3343000
  44.2460000  74.0653000  33.6283000  44.5220000  73.9513000  34.5373000
  43.3760000  73.6673000  33.5893000  44.1500000  60.0893000  40.6683000
  43.2360000  60.3193000  40.8363000  44.5790000  60.1733000  41.5203000
  43.9200000  68.2783000  43.1683000  43.2680000  68.5253000  42.5133000
  44.2980000  67.4643000  42.8343000  39.9690000  69.0203000  49.6553000
  39.2930000  68.9193000  50.3253000  40.7920000  68.8643000  50.1183000
  26.3090000  67.8283000  40.9963000  26.3470000  67.2943000  41.7903000
  25.8030000  67.3013000  40.3783000  33.6880000  62.6743000  44.4933000
  33.7520000  63.5363000  44.0803000  33.6250000  62.0613000  43.7603000
  33.1630000  64.7463000  48.1403000  33.7900000  64.3643000  48.7543000
  32.3060000  64.5283000  48.5063000  29.9400000  66.5543000  34.0723000
  30.2350000  65.6453000  34.0193000  29.0390000  66.5333000  33.7503000
  33.4690000  64.6303000  40.0553000  32.7480000  65.2433000  39.9153000
  34.2580000  65.1653000  39.9763000  36.2720000  61.9653000  46.3293000
  36.7950000  62.2113000  47.0913000  36.0530000  62.7973000  45.9093000
  31.6690000  64.2353000  34.1963000  31.3400000  63.3553000  34.0133000
  32.0220000  64.1803000  35.0833000  34.7830000  64.5233000  34.5633000
  35.1220000  65.0513000  33.8413000  35.2300000  64.8613000  35.3393000
  37.4770000  62.9063000  44.0143000  37.1370000  62.1073000  44.4163000
  36.7710000  63.2073000  43.4413000  38.1290000  59.9913000  42.4663000
  38.9510000  59.5173000  42.3443000  38.3720000  60.7703000  42.9663000
  36.7690000  63.0203000  32.7633000  37.4900000  63.3983000  32.2593000
  36.1460000  63.7393000  32.8663000  40.9130000  63.7253000  33.6983000
  41.1290000  64.6073000  33.3973000  40.4320000  63.3333000  32.9693000
  35.6530000  66.6833000  40.2763000  35.5070000  66.9973000  41.1683000
  35.1750000  67.3023000  39.7233000  37.5120000  63.6733000  40.3243000
  37.4980000  62.7783000  39.9873000  38.2290000  63.6813000  40.9573000
  39.3650000  64.1073000  42.3693000  39.1070000  65.0293000  42.3673000
  38.8330000  63.7103000  43.0593000  30.1270000  69.2243000  43.2143000
  29.5820000  70.0003000  43.3463000  31.0050000  69.5713000  43.0563000
  36.9160000  62.5553000  35.5923000  37.0370000  61.6273000  35.7923000
  36.6260000  62.5693000  34.6803000  39.7850000  60.2403000  38.7293000
  39.8070000  60.3043000  37.7743000  40.2020000  59.4013000  38.9233000
  50.1630000  69.9763000  36.7673000  50.6060000  69.2273000  36.3693000
  49.2860000  69.9673000  36.3843000  30.9140000  68.3513000  46.1073000
  30.1720000  68.4993000  46.6943000  30.5930000  68.6123000  45.2443000
  36.4000000  64.0683000  49.8013000  36.4490000  64.9443000  49.4193000
  36.9420000  63.5263000  49.2293000  47.0050000  71.4613000  46.3953000
  47.0550000  71.2963000  47.3363000  46.8970000  70.5943000  46.0053000
  44.2960000  67.4453000  47.7113000  45.1970000  67.3053000  47.4193000
  44.3700000  67.6103000  48.6513000  38.6300000  64.8213000  46.5563000
  37.7600000  65.1153000  46.2843000  38.8660000  65.4053000  47.2773000
  49.7070000  71.4463000  39.1593000  50.5410000  71.8853000  39.3233000
  49.8430000  70.9703000  38.3403000  46.7560000  69.0043000  45.1073000
  47.2310000  69.1973000  44.2993000  45.8320000  69.0603000  44.8613000
  33.6440000  70.1673000  34.6903000  33.3990000  69.2633000  34.8883000
  33.8140000  70.1693000  33.7483000  41.3340000  61.0393000  44.0733000
  41.8520000  61.7753000  43.7473000  40.9790000  61.3463000  44.9073000
  32.9140000  65.9003000  32.1893000  32.2210000  65.9743000  31.5333000
  32.6690000  65.1363000  32.7113000  41.5850000  57.4593000  39.5933000
  41.8650000  56.7923000  40.2193000  42.3700000  57.6523000  39.0803000
  45.4560000  65.8813000  43.3403000  46.4080000  65.9813000  43.3613000
  45.2860000  65.0893000  43.8503000  43.4770000  62.9673000  43.5263000
  42.8820000  63.2473000  42.8303000  43.1920000  63.4563000  44.2973000
  47.9350000  69.1023000  42.4543000  47.9020000  68.1633000  42.6403000
  48.5450000  69.1803000  41.7213000  39.7730000  67.9713000  28.4973000
  40.7190000  67.8423000  28.5663000  39.3950000  67.2333000  28.9743000
  48.0840000  65.8933000  42.5003000  47.5680000  65.1093000  42.3133000
  48.9680000  65.5653000  42.6653000  45.7450000  59.6373000  38.4593000
  45.5480000  59.3283000  39.3443000  46.3550000  60.3633000  38.5893000
  51.8340000  68.3043000  42.1923000  51.1070000  68.1703000  41.5843000
  51.4190000  68.6123000  42.9983000  39.6570000  72.0233000  49.9573000
  40.5770000  72.2013000  50.1513000  39.6220000  71.0793000  49.8053000
  37.9570000  65.8963000  28.4323000  37.0510000  65.6003000  28.5093000
  38.2350000  65.5993000  27.5663000  28.8750000  67.2173000  38.8823000
  28.5550000  66.3633000  38.5903000  28.3290000  67.4323000  39.6383000
  32.6530000  69.9333000  42.5993000  32.8720000  70.8653000  42.6183000
  33.0660000  69.5743000  43.3853000  39.5740000  60.4403000  34.5873000
  38.7640000  60.0953000  34.9623000  40.2620000  60.1313000  35.1753000
  41.5030000  59.5183000  36.2093000  42.0560000  59.9373000  36.8683000
  41.7400000  58.5913000  36.2513000  37.5260000  65.5063000  51.9893000
  37.4260000  66.4563000  51.9213000  37.3080000  65.1783000  51.1173000
  36.7270000  62.7553000  28.5733000  37.5890000  63.0803000  28.8333000
  36.9120000  61.9683000  28.0613000  44.8810000  61.6283000  35.7173000
  44.3000000  62.2863000  35.3353000  44.6140000  60.8063000  35.3063000
  43.3310000  61.0283000  37.9193000  43.8310000  61.1403000  37.1113000
  43.9740000  60.7243000  38.5593000  37.3890000  68.9363000  50.8063000
  36.9060000  69.7363000  51.0123000  37.4750000  68.9473000  49.8533000
  33.9060000  71.3973000  45.4103000  34.7260000  71.8913000  45.4333000
  34.1800000  70.4803000  45.3823000  43.6630000  63.7883000  34.7733000
  42.7760000  64.0733000  34.5553000  44.0780000  63.6273000  33.9253000
  47.0140000  63.8123000  38.4883000  47.7910000  64.3023000  38.7613000
  46.2890000  64.2383000  38.9453000  49.4520000  64.5253000  39.5453000
  50.0460000  64.2853000  38.8353000  49.5240000  63.8063000  40.1733000
  42.8070000  73.5523000  28.8673000  43.5110000  73.7573000  29.4833000
  42.0840000  74.1203000  29.1323000  43.6370000  69.3033000  34.9883000
  43.5810000  69.7603000  34.1483000  44.1900000  68.5423000  34.8103000
  47.4480000  65.0923000  35.8133000  47.1910000  64.6923000  36.6433000
  46.8230000  65.8073000  35.6883000  51.7590000  67.8323000  38.3203000
  51.1990000  67.9013000  39.0933000  51.1530000  67.6563000  37.6003000
  44.7160000  73.9913000  30.9173000  45.5510000  73.5593000  30.7353000
  44.5540000  73.8193000  31.8453000  44.3710000  70.4943000  32.2833000
  44.3150000  70.3283000  31.3423000  43.7450000  71.2013000  32.4393000
  29.1600000  65.7313000  46.1093000  29.8060000  65.2203000  46.5983000
  28.9520000  66.4673000  46.6833000  41.6850000  72.7993000  51.6083000
  42.5540000  72.9733000  51.2473000  41.2060000  73.6183000  51.4863000
  37.6800000  59.9953000  31.8613000  37.6680000  60.9393000  32.0183000
  38.5730000  59.8123000  31.5673000  41.4950000  56.5893000  36.1163000
  40.7290000  56.0353000  36.2623000  41.9060000  56.6613000  36.9773000
  33.5000000  62.8773000  50.2073000  34.3630000  62.5213000  50.4173000
  32.9260000  62.5393000  50.8943000  20.8260000  15.5263000  27.7373000
  21.4640000  15.4073000  27.0343000  20.7080000  16.4743000  27.7963000
  17.6350000  15.4793000  27.6733000  17.2970000  15.3633000  26.7863000
  18.5040000  15.0783000  27.6543000  13.4940000  17.3323000  23.6633000
  12.9300000  17.2413000  22.8953000  13.3790000  16.5123000  24.1433000
  18.1170000  16.6323000  33.6323000  18.1060000  16.2383000  32.7603000
  18.2790000  15.8993000  34.2253000  11.0400000  18.8283000  26.5023000
  11.8330000  18.4873000  26.0863000  11.2800000  18.9373000  27.4223000
  19.0740000  21.0003000  18.9753000  18.4230000  21.5853000  18.5883000
  19.8680000  21.5303000  19.0343000  14.8380000  19.4163000  32.5803000
  14.5470000  20.3213000  32.4653000  15.4740000  19.4583000  33.2943000
  15.7640000  16.7943000  29.1703000  16.3600000  16.5693000  28.4563000
  15.8210000  16.0523000  29.7733000  20.3800000  13.2513000  24.8133000
  21.1670000  12.8333000  24.4623000  20.6440000  14.1563000  24.9813000
  20.5510000  18.6893000  19.5123000  19.9160000  18.7623000  20.2243000
  20.2210000  19.2783000  18.8333000  25.7810000  13.1893000  25.7163000
  26.5140000  12.6193000  25.9503000  25.0250000  12.8013000  26.1573000
  17.3990000  15.6123000  22.9123000  17.0350000  15.0853000  23.6243000
  18.2560000  15.2213000  22.7393000  23.3040000   6.9013000  30.1753000
  22.9720000   7.7703000  29.9523000  22.7080000   6.5853000  30.8553000
  19.7970000  19.1023000  29.5753000  19.4970000  20.0053000  29.4673000
  19.4520000  18.8353000  30.4273000  13.2480000  15.5543000  25.6093000
  12.3230000  15.4213000  25.8163000  13.4970000  16.3333000  26.1063000
  23.1970000  11.6203000  27.2553000  22.2880000  11.5523000  26.9613000
  23.1450000  12.0983000  28.0833000  10.6090000  15.1973000  26.4433000
  10.7380000  15.4503000  27.3573000   9.9290000  15.7903000  26.1243000
  14.7790000  25.8673000  22.5423000  14.7010000  26.8173000  22.6213000
  14.1750000  25.5213000  23.2003000  17.2710000  13.0393000  35.1983000
  16.4940000  13.5993000  35.1893000  17.9100000  13.5253000  35.7203000
  25.0630000   9.8223000  29.0333000  24.4200000  10.1153000  28.3873000
  24.5580000   9.7073000  29.8383000  15.5250000  15.8483000  34.7603000
  16.2670000  16.3863000  34.4843000  14.8190000  16.4753000  34.9173000
  21.0010000  17.9913000  33.3573000  21.4090000  17.5493000  32.6133000
  20.2790000  17.4163000  33.6113000  17.3540000  12.9283000  30.7313000
  18.2000000  13.3523000  30.8743000  17.2940000  12.2713000  31.4243000
  21.3240000  18.5513000  27.1123000  20.6950000  18.7163000  26.4103000
  20.9360000  18.9653000  27.8843000  25.2030000  19.4863000  24.4673000
  24.5180000  19.8663000  23.9173000  25.2870000  20.0963000  25.2003000
  20.5040000  10.5893000  32.3893000  20.2600000  11.3433000  31.8523000
  20.7800000  10.9673000  33.2233000  22.4580000  17.1323000  31.0663000
  22.6700000  17.7763000  30.3903000  22.4110000  16.2993000  30.5993000
  20.0600000   9.7443000  27.9703000  19.1990000  10.0423000  28.2623000
  20.0870000   9.9613000  27.0383000  16.8770000  18.2883000  24.3773000
  17.3400000  18.5673000  23.5883000  16.6120000  17.3873000  24.1953000
  13.7690000  17.8363000  27.3153000  14.3390000  18.2643000  26.6773000
  14.3600000  17.5543000  28.0143000  14.2620000  13.0023000  35.5623000
  13.6310000  13.6843000  35.7953000  14.1550000  12.8903000  34.6173000
   9.5560000  12.6693000  26.4883000   8.7660000  12.9253000  26.0123000
  10.0470000  13.4843000  26.5933000  23.5720000  20.0103000  29.2393000
  24.3940000  19.6083000  28.9573000  23.5690000  19.9063000  30.1903000
  17.3380000  19.5583000  31.3953000  17.4030000  20.0203000  32.2313000
  16.6290000  18.9283000  31.5233000   7.8400000  12.9223000  28.9203000
   8.0910000  13.8073000  29.1853000   8.3760000  12.7433000  28.1473000
  31.6630000  16.3543000  25.5873000  30.9090000  15.7843000  25.4323000
  31.7980000  16.3203000  26.5343000  17.0530000  21.2253000  21.2633000
  16.9170000  22.0703000  21.6913000  17.5940000  21.4273000  20.4993000
  10.5060000  18.7423000  21.8353000  11.0180000  19.5373000  21.9863000
  11.1580000  18.0453000  21.7693000  12.3150000  21.8593000  23.9183000
  12.4920000  22.7813000  23.7303000  13.1110000  21.5453000  24.3473000
  16.4560000   8.7203000  35.5163000  17.1970000   9.3213000  35.4373000
  16.6880000   7.9783000  34.9583000  11.6010000  13.9053000  33.7943000
  11.4860000  13.0043000  34.0953000  10.7450000  14.1523000  33.4423000
  18.6800000  21.8473000  35.3933000  18.2360000  21.0613000  35.0753000
  19.3410000  22.0353000  34.7273000  13.4380000  23.3773000  29.9193000
  13.9890000  23.2483000  29.1463000  12.6000000  23.6763000  29.5683000
  20.7780000  22.1273000  33.4213000  20.7600000  22.9483000  32.9293000
  21.7000000  22.0033000  33.6463000  17.2350000  19.6423000  34.2633000
  17.7680000  18.8813000  34.0333000  16.7070000  19.3493000  35.0063000
  20.4020000   4.7483000  29.7933000  20.0590000   5.6383000  29.7163000
  20.7700000   4.5583000  28.9293000  19.4820000   7.1183000  27.7573000
  18.9780000   7.0813000  26.9443000  19.7750000   8.0283000  27.8173000
  15.7260000   7.2023000  26.7643000  16.5910000   7.0073000  26.4053000
  15.7940000   6.9733000  27.6913000  25.3410000  17.4923000  20.2353000
  24.5640000  17.1533000  19.7913000  26.0200000  17.4973000  19.5613000
  18.6000000  18.7703000  21.7753000  18.0730000  18.0363000  21.4623000
  18.0990000  19.5483000  21.5293000  23.5800000  16.9653000  26.8923000
  22.9220000  17.6553000  26.9803000  24.3840000  17.3553000  27.2353000
  22.3900000  15.3203000  24.9423000  22.9030000  15.9533000  25.4443000
  23.0400000  14.7203000  24.5763000  19.6520000  25.2983000  17.6983000
  18.9790000  25.6013000  18.3073000  20.0390000  26.1013000  17.3493000
  18.8680000  12.7953000  27.1883000  17.9510000  13.0163000  27.0303000
  19.2840000  12.8693000  26.3293000  19.6520000  14.1943000  22.3183000
  20.3990000  14.7063000  22.0093000  19.9210000  13.8723000  23.1793000
  23.1560000  20.3003000  23.0703000  22.7030000  19.4603000  23.1273000
  22.5260000  20.9373000  23.4083000  22.1000000  11.2303000  24.3003000
  21.3620000  10.7173000  24.6313000  22.3520000  10.7903000  23.4883000
  21.6000000  22.1383000  24.0053000  21.8920000  22.6993000  23.2863000
  22.1100000  22.4313000  24.7603000  16.4730000  14.3033000  25.4023000
  16.5280000  13.3503000  25.3263000  15.6620000  14.4593000  25.8863000
  16.5630000  22.9163000  25.0943000  16.5210000  23.1423000  24.1653000
  17.4790000  22.6823000  25.2433000  20.0100000  13.3853000  31.9923000
  20.3650000  13.6123000  32.8523000  20.6570000  13.7163000  31.3703000
  25.7390000  16.5063000  22.6973000  25.6010000  16.6973000  21.7703000
  25.3830000  17.2683000  23.1543000  13.9040000  10.4923000  28.7773000
  14.5440000  10.3513000  28.0793000  13.0710000  10.2063000  28.4013000
  25.7660000  18.5743000  27.7093000  26.2000000  18.4823000  28.5573000
  26.4800000  18.5503000  27.0713000  14.6800000  19.7923000  24.8913000
  15.4740000  19.2973000  24.6893000  13.9690000  19.2643000  24.5273000
  19.4990000  22.1743000  29.2423000  19.5530000  22.7433000  30.0103000
  18.6310000  22.3443000  28.8773000  12.3790000  11.8763000  30.7243000
  13.0510000  11.6683000  30.0763000  11.5520000  11.6783000  30.2853000
  26.6280000  18.6163000  30.2423000  26.8220000  19.5213000  30.4883000
  26.5280000  18.1573000  31.0763000  18.2820000   8.5023000  32.7413000
  17.6340000   9.2013000  32.6473000  19.0520000   8.9363000  33.1083000
  21.6890000  18.7673000  35.8163000  21.5380000  18.5383000  34.8993000
  21.6800000  19.7243000  35.8293000  18.4580000  16.3403000  30.8013000
  19.3870000  16.4913000  30.6273000  18.0370000  16.4293000  29.9453000
  17.2570000  20.3653000  28.5703000  17.1180000  19.9973000  29.4433000
  16.4680000  20.8803000  28.3993000  17.8520000  25.4663000  19.9133000
  18.0270000  24.9953000  20.7273000  17.1650000  26.0933000  20.1413000
  18.8070000  19.7433000  25.9593000  18.4720000  19.7043000  26.8553000
  18.3080000  19.0783000  25.4863000  12.7820000  15.1503000  31.4853000
  12.6440000  14.4183000  32.0863000  13.6920000  15.0613000  31.2033000
  15.4100000  14.8623000  30.9733000  16.1200000  14.2223000  30.9323000
  15.3670000  15.1143000  31.8963000  23.3990000  21.7993000  33.8943000
  23.3400000  21.1153000  33.2273000  23.8010000  22.5413000  33.4423000
  14.1230000  11.8493000  32.7923000  13.5870000  11.3983000  33.4453000
  13.5350000  11.9833000  32.0493000  12.4180000  28.6153000  26.6873000
  12.6570000  29.2473000  27.3653000  11.5750000  28.2643000  26.9733000
  23.4000000  19.7633000  32.1253000  22.5130000  19.4263000  32.2483000
  23.9700000  19.0313000  32.3623000  16.9310000  24.4233000  29.0913000
  16.8580000  25.2293000  29.6033000  16.4880000  24.6223000  28.2663000
  16.7190000  23.6603000  22.6013000  15.9360000  24.2023000  22.6953000
  17.4190000  24.1783000  23.0013000  20.0290000   9.4703000  25.2453000
  20.5260000   8.7173000  24.9253000  19.2580000   9.5063000  24.6793000
  27.8820000  15.1743000  26.8873000  27.8710000  16.0563000  26.5163000
  27.0140000  14.8213000  26.6923000  19.3900000  24.3223000  31.2473000
  20.1030000  24.9573000  31.1743000  18.8990000  24.4183000  30.4313000
  21.1120000  18.2273000  22.8193000  20.1780000  18.3473000  22.6493000
  21.2900000  17.3243000  22.5553000  16.6130000  11.6113000  24.9723000
  16.2420000  11.0593000  25.6603000  17.1090000  11.0073000  24.4193000
  24.4990000  14.0693000  23.3543000  24.9650000  14.9013000  23.2803000
  24.9500000  13.6033000  24.0583000  14.4420000  22.0713000  32.0673000
  15.1430000  22.7053000  32.2203000  13.9710000  22.4133000  31.3073000
  22.5670000  20.4133000  20.3523000  22.8430000  20.2993000  21.2623000
  21.6970000  20.0153000  20.3133000  22.4710000   6.4373000  27.3933000
  21.5570000   6.6673000  27.5613000  22.9000000   6.5213000  28.2443000
  22.2420000  14.6263000  29.8933000  21.5890000  14.8733000  29.2383000
  22.6200000  13.8123000  29.5593000  19.2020000  24.6623000  23.9963000
  19.3850000  23.8443000  24.4583000  20.0260000  24.8783000  23.5583000
  19.5370000  23.5883000  21.2573000  20.0650000  23.0783000  20.6443000
  19.7990000  23.2733000  22.1223000  18.2900000  15.3683000  36.3793000
  17.6150000  15.2673000  37.0503000  19.1130000  15.2123000  36.8433000
  10.0380000  21.6053000  29.0013000  10.6240000  20.8593000  29.1333000
   9.8410000  21.9153000  29.8843000  12.8920000  24.6403000  24.0173000
  12.2230000  25.1253000  23.5333000  12.7530000  24.8873000  24.9313000
  17.0330000  26.6743000  30.6153000  17.5850000  26.8383000  31.3803000
  17.3730000  27.2653000  29.9433000  11.4840000  11.0943000  34.8653000
  12.1120000  10.7123000  35.4783000  10.6270000  10.8763000  35.2303000
  21.8840000  21.5003000  36.4703000  22.4280000  22.1133000  35.9753000
  21.3030000  22.0583000  36.9873000  20.1700000  24.6233000  27.6013000
  20.0450000  23.8223000  27.0933000  20.8270000  25.1173000  27.1133000
  11.7900000  10.9773000  26.7793000  11.0690000  11.5913000  26.6403000
  12.5800000  11.5133000  26.7013000  22.2330000  22.4233000  29.2293000
  21.2860000  22.3043000  29.1573000  22.5810000  21.5363000  29.3123000
  14.5930000   8.3133000  33.0533000  15.1160000   8.5593000  33.8163000
  14.3740000   9.1453000  32.6343000  19.2380000  22.2193000  25.4303000
  19.0900000  21.2903000  25.6113000  20.0630000  22.2413000  24.9463000
  22.8410000  23.0423000  26.5163000  23.7660000  22.8363000  26.3793000
  22.6730000  22.7933000  27.4253000  15.7980000   9.2543000  30.7383000
  15.4580000   8.4553000  31.1403000  15.0920000   9.5543000  30.1663000
  16.4500000   6.3393000  29.1913000  17.2730000   5.8653000  29.0693000
  16.6940000   7.1183000  29.6913000  13.9740000  13.0313000  27.0003000
  13.8280000  13.3453000  27.8933000  13.4960000  13.6503000  26.4473000
  15.8330000  10.0213000  27.0483000  15.8200000   9.1253000  26.7113000
  16.5510000  10.0283000  27.6823000  17.6860000  10.4553000  29.0943000
  17.4280000  11.3773000  29.0923000  17.1550000  10.0583000  29.7843000
  22.6310000  23.5603000  21.8733000  22.8040000  22.9953000  21.1203000
  23.1240000  24.3603000  21.6903000   8.4480000  15.5723000  29.9393000
   7.9040000  16.3483000  30.0713000   9.3260000  15.9193000  29.7813000
  28.4850000  16.3243000  23.4923000  28.9280000  15.5753000  23.0933000
  27.6070000  16.3153000  23.1093000  23.6180000  22.8773000  18.9723000
  24.3130000  23.4973000  19.1913000  23.9600000  22.0263000  19.2473000
   9.2350000  14.6993000  32.8323000   8.4930000  14.8473000  33.4183000
   8.9140000  14.9593000  31.9693000  25.5170000  20.3273000  20.5013000
  26.0420000  20.6663000  19.7763000  25.4300000  19.3913000  20.3173000
  17.1790000  24.2403000  32.6303000  17.4880000  23.9953000  33.5023000
  17.9770000  24.4453000  32.1423000  17.2010000  26.3943000  24.8603000
  16.7620000  25.9023000  25.5543000  17.9520000  25.8513000  24.6203000
   9.6810000  22.5853000  24.8633000  10.5060000  22.2863000  24.4833000
   9.3300000  21.8163000  25.3123000  14.6490000  21.9383000  26.9333000
  14.0270000  21.2753000  26.6333000  15.3190000  21.9643000  26.2503000
   7.8810000  20.5043000  25.8223000   7.0450000  20.0763000  25.6403000
   7.8540000  20.6973000  26.7593000  14.7210000  10.4163000  36.5263000
  14.7700000  11.2923000  36.1443000  15.2630000   9.8743000  35.9533000
  25.2070000  20.9603000  35.8063000  24.4160000  20.9423000  35.2673000
  24.9700000  21.4993000  36.5613000  25.3260000  17.8093000  33.1193000
  25.3760000  17.6443000  34.0613000  25.2180000  16.9423000  32.7293000
  14.2100000  20.4883000  20.4093000  14.3590000  21.1723000  19.7553000
  15.0170000  20.4693000  20.9233000  22.6170000  13.7923000  34.4353000
  23.5180000  13.6533000  34.1443000  22.6920000  13.9583000  35.3753000
  16.9510000  11.1693000  33.2813000  16.0810000  11.4623000  33.0093000
  17.1870000  11.7533000  34.0013000  26.8280000  20.2293000  33.3643000
  26.5370000  20.5923000  34.2003000  26.2160000  19.5163000  33.1853000
  28.0280000  17.7943000  25.8843000  28.8630000  18.2333000  26.0483000
  28.1640000  17.3183000  25.0653000  25.0770000  15.3523000  31.8323000
  25.5520000  15.5453000  31.0233000  24.1540000  15.4083000  31.5863000
  19.6550000   7.3873000  30.7973000  20.1730000   8.1233000  30.4723000
  19.3010000   7.6933000  31.6323000  17.7100000  22.9833000  17.8803000
  17.1370000  23.6023000  17.4273000  18.2830000  23.5333000  18.4143000
  23.7770000  12.2293000  30.0643000  24.7290000  12.3293000  30.0863000
  23.6080000  11.4373000  30.5743000  21.7990000   9.3143000  30.2503000
  21.2040000   9.5953000  29.5553000  21.5140000   9.8043000  31.0223000
  20.9290000  23.2673000  19.0113000  21.8620000  23.2013000  19.2143000
  20.8420000  24.1023000  18.5523000  23.5580000  22.5833000  15.9713000
  23.4800000  22.2493000  16.8653000  24.3790000  23.0753000  15.9703000
  26.2560000  15.4493000  29.1793000  26.2240000  14.5113000  29.3653000
  26.8660000  15.5283000  28.4453000  26.4050000  12.2413000  29.2243000
  25.8890000  11.4563000  29.0373000  27.2890000  11.9123000  29.3893000
  24.0670000   5.9853000  25.1843000  23.8690000   5.6763000  26.0683000
  24.6760000   6.7113000  25.3143000  32.0740000  16.5113000  28.3193000
  32.8040000  16.2503000  28.8803000  31.4640000  15.7743000  28.3593000
  30.1550000  14.6523000  28.9173000  29.4290000  14.5173000  28.3083000
  29.7400000  14.9603000  29.7223000  17.9780000  18.3713000  36.6813000
  18.8990000  18.5493000  36.8753000  17.9430000  17.4263000  36.5293000
  10.9740000  16.2813000  29.3243000  11.1930000  17.2133000  29.3423000
  11.3870000  15.9223000  30.1093000  15.8470000  11.8543000  38.7143000
  15.7470000  12.8043000  38.6453000  15.6290000  11.5263000  37.8423000
   7.0650000  17.1853000  27.5763000   6.3720000  16.7703000  27.0633000
   7.8130000  17.2273000  26.9793000  21.6520000   7.3763000  24.6443000
  22.1520000   7.4883000  23.8353000  22.2960000   7.0723000  25.2843000
  15.7100000  15.2843000  37.5303000  15.2270000  16.0843000  37.7373000
  15.7960000  15.2953000  36.5773000   8.9790000  17.1173000  25.4533000
   8.9560000  17.2163000  24.5013000   9.2890000  17.9633000  25.7743000
  11.6380000  19.1743000  29.5673000  12.5920000  19.1433000  29.5003000
  11.4390000  18.7133000  30.3823000  12.2280000  17.7453000  32.1343000
  13.0470000  18.2393000  32.1583000  12.5010000  16.8283000  32.1063000
  25.3360000  10.1603000  25.2133000  26.1120000  10.6503000  25.4853000
  24.6110000  10.5863000  25.6703000  27.7730000  10.8733000  26.2703000
  28.3670000  10.6333000  25.5593000  27.8460000  10.1543000  26.8973000
   9.9930000  24.7163000  26.5843000   9.8580000  23.9563000  26.0183000
   9.5760000  25.4403000  26.1173000  21.9580000  15.6513000  21.7123000
  21.9020000  16.1083000  20.8733000  22.5110000  14.8903000  21.5343000
  25.7690000  11.4403000  22.5373000  25.5130000  11.0403000  23.3683000
  25.1440000  12.1543000  22.4123000  30.0800000  14.1803000  25.0443000
  29.5200000  14.2493000  25.8173000  29.4740000  14.0043000  24.3243000
  13.1500000  25.6133000  26.7963000  13.0330000  26.5583000  26.6943000
  12.3290000  25.3113000  27.1853000  23.0370000  20.3383000  17.6423000
  23.8720000  19.9063000  17.4603000  22.8760000  20.1673000  18.5693000
  22.6920000  16.8423000  19.0073000  22.6370000  16.6763000  18.0663000
  22.0660000  17.5493000  19.1643000  20.0060000  19.1463000  38.3333000
  20.8760000  19.3213000  37.9713000  19.5270000  19.9663000  38.2103000
  14.1750000  26.2663000  30.0123000  15.0780000  26.2993000  30.3283000
  13.9490000  25.3363000  30.0263000  15.9300000  25.0193000  26.6733000
  14.9800000  25.0193000  26.5593000  16.2340000  24.2733000  26.1563000
  24.3330000  32.6623000  23.6633000  23.7700000  32.5713000  22.8953000
  24.2190000  31.8423000  24.1433000  21.8800000  34.1573000  26.5023000
  22.6720000  33.8163000  26.0863000  22.1190000  34.2663000  27.4223000
  29.9130000  36.3293000  18.9753000  29.2620000  36.9143000  18.5883000
  30.7080000  36.8593000  19.0343000  23.8390000  33.4183000  19.3733000
  24.6120000  32.8713000  19.2353000  24.1910000  34.2823000  19.5853000
  26.1750000  29.5773000  17.0053000  26.4280000  29.0553000  16.2443000
  25.2380000  29.4133000  17.1083000  31.3910000  34.0183000  19.5123000
  30.7550000  34.0913000  20.2243000  31.0610000  34.6073000  18.8333000
  25.8950000  31.4803000  19.2083000  25.7790000  30.8043000  19.8763000
  26.0050000  30.9933000  18.3913000  34.1430000  22.2303000  30.1753000
  33.8120000  23.1003000  29.9523000  33.5480000  21.9143000  30.8553000
  27.8790000  25.9703000  17.9083000  28.0460000  26.8383000  18.2753000
  27.6890000  26.1323000  16.9853000  24.0880000  30.8833000  25.6093000
  23.1630000  30.7503000  25.8163000  24.3360000  31.6623000  26.1063000
  27.8580000  28.4253000  18.8933000  27.7380000  28.8713000  19.7323000
  27.1630000  28.7743000  18.3343000  21.4480000  30.5263000  26.4433000
  21.5780000  30.7803000  27.3573000  20.7680000  31.1193000  26.1243000
  25.6180000  41.1963000  22.5423000  25.5410000  42.1473000  22.6213000
  25.0150000  40.8503000  23.2003000  33.5560000  28.8983000  19.7213000
  34.4680000  29.1303000  19.5463000  33.0470000  29.4813000  19.1593000
  27.7160000  33.6183000  24.3773000  28.1800000  33.8963000  23.5883000
  27.4520000  32.7163000  24.1953000  26.6530000  29.7403000  21.1863000
  27.3550000  30.1923000  21.6543000  26.3210000  29.0983000  21.8143000
  20.3950000  27.9983000  26.4883000  19.6050000  28.2543000  26.0123000
  20.8870000  28.8133000  26.5933000  22.3470000  28.3633000  23.4463000
  21.5500000  28.4753000  23.9653000  22.1190000  28.7013000  22.5813000
  18.6790000  28.2513000  28.9203000  18.9300000  29.1363000  29.1853000
  19.2150000  28.0723000  28.1473000  27.8920000  36.5543000  21.2633000
  27.7570000  37.3993000  21.6913000  28.4330000  36.7563000  20.4993000
  24.3790000  22.6333000  37.9243000  23.9860000  22.0803000  38.5993000
  25.1960000  22.9443000  38.3153000  21.3450000  34.0723000  21.8353000
  21.8580000  34.8663000  21.9863000  21.9970000  33.3743000  21.7693000
  23.1550000  37.1883000  23.9183000  23.3310000  38.1103000  23.7303000
  23.9500000  36.8743000  24.3473000  31.2420000  20.0773000  29.7933000
  30.8980000  20.9673000  29.7163000  31.6090000  19.8873000  28.9293000
  19.3100000  32.4003000  22.6113000  20.1480000  32.8103000  22.3953000
  19.4880000  31.4603000  22.5813000  31.2070000  30.0683000  18.3003000
  30.6910000  30.8383000  18.5393000  30.9340000  29.3943000  18.9233000
  26.5650000  22.5313000  26.7643000  27.4310000  22.3363000  26.4053000
  26.6330000  22.3023000  27.6913000  30.9950000  27.9413000  20.1263000
  30.6900000  28.2553000  20.9773000  31.9480000  28.0193000  20.1683000
  29.4400000  34.1003000  21.7753000  28.9120000  33.3653000  21.4623000
  28.9390000  34.8773000  21.5293000  24.1720000  24.7623000  24.1363000
  24.7460000  24.5393000  23.4033000  24.7590000  24.8313000  24.8893000
  24.4990000  26.7923000  18.1553000  23.6620000  27.1303000  18.4763000
  24.3590000  26.6573000  17.2183000  26.4740000  21.6363000  22.8633000
  25.8200000  21.3213000  22.2393000  26.4320000  21.0133000  23.5893000
  27.5850000  31.9183000  14.7793000  26.6780000  31.6873000  14.9783000
  28.0820000  31.1213000  14.9663000  30.4920000  40.6273000  17.6983000
  29.8180000  40.9313000  18.3073000  30.8780000  41.4303000  17.3493000
  28.7640000  32.0193000  19.3013000  27.8550000  31.7353000  19.3983000
  28.7930000  32.4393000  18.4413000  33.0400000  19.3363000  24.8943000
  33.3460000  18.4763000  24.6073000  33.7660000  19.9283000  24.6943000
  19.3330000  29.7403000  23.2823000  19.1350000  29.1463000  22.5583000
  18.7770000  29.4353000  24.0003000  28.4610000  33.5603000  16.6403000
  28.0230000  32.8433000  16.1803000  29.2030000  33.7873000  16.0783000
  25.2520000  28.2503000  23.1613000  24.4380000  28.5493000  23.5673000
  25.7480000  27.8553000  23.8783000  24.7430000  25.8213000  28.7773000
  25.3830000  25.6803000  28.0793000  23.9110000  25.5353000  28.4013000
  21.8270000  29.2663000  20.9673000  20.8970000  29.2043000  21.1843000
  21.9230000  28.7443000  20.1703000  21.7460000  25.7913000  23.5543000
  22.0070000  26.7063000  23.4453000  22.5680000  25.3243000  23.7043000
  23.2180000  27.2053000  30.7243000  23.8910000  26.9973000  30.0763000
  22.3910000  27.0073000  30.2853000  28.6910000  40.7953000  19.9133000
  28.8660000  40.3243000  20.7273000  28.0040000  41.4223000  20.1413000
  32.5830000  32.4183000  16.2333000  31.9660000  31.6933000  16.1363000
  32.1140000  33.1793000  15.8903000  23.2570000  43.9443000  26.6873000
  23.4970000  44.5763000  27.3653000  22.4140000  43.5933000  26.9733000
  24.3720000  26.6373000  15.3553000  23.4950000  26.5163000  14.9913000
  24.8480000  25.8453000  15.1033000  15.8930000  31.4253000  25.4493000
  16.5800000  31.1113000  24.8613000  15.7370000  32.3293000  25.1763000
  20.6960000  26.3143000  29.8783000  20.6120000  25.7063000  29.1433000
  19.8740000  26.8043000  29.8793000  27.5590000  38.9893000  22.6013000
  26.7760000  39.5323000  22.6953000  28.2580000  39.5073000  23.0013000
  31.9520000  33.5563000  22.8193000  31.0170000  33.6763000  22.6493000
  32.1290000  32.6533000  22.5553000  33.4060000  35.7423000  20.3523000
  33.6820000  35.6283000  21.2623000  32.5370000  35.3443000  20.3133000
  33.3100000  21.7663000  27.3933000  32.3970000  21.9963000  27.5613000
  33.7400000  21.8503000  28.2443000  30.3760000  38.9183000  21.2573000
  30.9050000  38.4073000  20.6443000  30.6390000  38.6023000  22.1223000
  23.7320000  39.9693000  24.0173000  23.0630000  40.4543000  23.5333000
  23.5930000  40.2163000  24.9313000  15.4690000  29.5053000  27.7213000
  15.5080000  28.9713000  28.5153000  14.9640000  28.9783000  27.1023000
  22.8490000  24.3513000  31.2173000  22.9130000  25.2133000  30.8053000
  22.7850000  23.7383000  30.4843000  19.1000000  28.2313000  20.7963000
  19.3960000  27.3223000  20.7433000  18.1990000  28.2103000  20.4743000
  22.6300000  26.3073000  26.7793000  21.9080000  26.9203000  26.6403000
  23.4190000  26.8423000  26.7013000  20.8290000  25.9123000  20.9203000
  20.5000000  25.0323000  20.7383000  21.1830000  25.8573000  21.8083000
  23.9430000  26.2003000  21.2883000  24.2830000  26.7283000  20.5663000
  24.3910000  26.5383000  22.0643000  27.2890000  21.6683000  29.1913000
  28.1120000  21.1943000  29.0693000  27.5330000  22.4473000  29.6913000
  25.9300000  24.6973000  19.4873000  26.6510000  25.0753000  18.9843000
  25.3070000  25.4163000  19.5913000  30.0730000  25.4023000  20.4233000
  30.2900000  26.2843000  20.1223000  29.5930000  25.0103000  19.6943000
  24.8130000  28.3603000  27.0003000  24.6680000  28.6743000  27.8933000
  24.3360000  28.9793000  26.4473000  33.4700000  38.8893000  21.8733000
  33.6440000  38.3243000  21.1203000  33.9630000  39.6893000  21.6903000
  19.2880000  30.9013000  29.9393000  18.7430000  31.6773000  30.0713000
  20.1660000  31.2483000  29.7813000  26.0760000  24.2323000  22.3173000
  26.1980000  23.3043000  22.5163000  25.7870000  24.2463000  21.4053000
  28.9460000  21.9173000  25.4543000  28.9680000  21.9813000  24.4993000
  29.3620000  21.0783000  25.6483000  34.4580000  38.2063000  18.9723000
  35.1530000  38.8273000  19.1913000  34.8000000  37.3563000  19.2473000
  20.0740000  30.0283000  32.8323000  19.3320000  30.1763000  33.4183000
  19.7540000  30.2893000  31.9693000  36.3570000  35.6563000  20.5013000
  36.8820000  35.9953000  19.7763000  36.2690000  34.7213000  20.3173000
  20.5200000  37.9143000  24.8633000  21.3460000  37.6153000  24.4833000
  20.1690000  37.1453000  25.3123000  18.7210000  35.8333000  25.8223000
  17.8840000  35.4053000  25.6403000  18.6930000  36.0263000  26.7593000
  25.0490000  35.8173000  20.4093000  25.1980000  36.5013000  19.7553000
  25.8560000  35.7983000  20.9233000  22.8050000  31.8443000  21.4153000
  22.5590000  30.9403000  21.6133000  22.9740000  31.8463000  20.4733000
  22.0740000  27.5773000  18.9133000  21.3810000  27.6513000  18.2573000
  21.8290000  26.8133000  19.4353000  30.7460000  19.1363000  26.3173000
  31.0260000  18.4693000  26.9433000  31.5310000  19.3293000  25.8053000
  28.5490000  38.3123000  17.8803000  27.9760000  38.9313000  17.4273000
  29.1220000  38.8623000  18.4143000  31.7690000  38.5963000  19.0113000
  32.7020000  38.5303000  19.2143000  31.6810000  39.4323000  18.5523000
  34.3980000  37.9123000  15.9713000  34.3190000  37.5783000  16.8653000
  35.2190000  38.4053000  15.9703000  28.9340000  29.6483000  15.2213000
  29.8800000  29.5193000  15.2903000  28.5550000  28.9103000  15.6983000
  34.9060000  21.3143000  25.1843000  34.7080000  21.0053000  26.0683000
  35.5160000  22.0403000  25.3143000  27.1180000  27.5733000  15.1573000
  26.2110000  27.2773000  15.2333000  27.3960000  27.2763000  14.2903000
  18.0360000  28.8943000  25.6073000  17.7160000  28.0403000  25.3143000
  17.4890000  29.1093000  26.3633000  28.7340000  22.1173000  21.3113000
  27.9240000  21.7723000  21.6873000  29.4230000  21.8083000  21.9003000
  30.6630000  21.1953000  22.9343000  31.2160000  21.6143000  23.5933000
  30.9000000  20.2683000  22.9763000  25.8880000  24.4323000  15.2983000
  26.7500000  24.7573000  15.5583000  26.0730000  23.6453000  14.7853000
  17.9050000  32.5143000  27.5763000  17.2110000  32.1003000  27.0633000
  18.6520000  32.5563000  26.9793000  34.0410000  23.3053000  22.4423000
  33.4610000  23.9633000  22.0593000  33.7750000  22.4833000  22.0303000
  32.4920000  22.7053000  24.6443000  32.9910000  22.8173000  23.8353000
  33.1350000  22.4013000  25.2843000  19.8180000  32.4463000  25.4533000
  19.7950000  32.5453000  24.5013000  20.1280000  33.2933000  25.7743000
  20.8320000  40.0463000  26.5843000  20.6980000  39.2863000  26.0183000
  20.4150000  40.7703000  26.1173000  31.9680000  35.2293000  15.5923000
  32.6720000  35.4343000  16.2083000  31.2440000  35.7973000  15.8573000
  32.7980000  30.9803000  21.7123000  32.7410000  31.4373000  20.8733000
  33.3510000  30.2193000  21.5343000  33.8770000  35.6683000  17.6423000
  34.7110000  35.2363000  17.4603000  33.7150000  35.4963000  18.5693000
  33.5310000  32.1713000  19.0073000  33.4760000  32.0053000  18.0663000
  32.9060000  32.8783000  19.1643000  18.3200000  27.4083000  32.8343000
  18.9660000  26.8973000  33.3223000  18.1120000  28.1443000  33.4083000
  26.8410000  21.6723000  18.5863000  26.8290000  22.6163000  18.7433000
  27.7330000  21.4893000  18.2923000  30.6560000  18.2663000  22.8413000
  29.8890000  17.7123000  22.9863000  31.0670000  18.3383000  23.7023000
  35.1730000  47.9913000  23.6633000  34.6090000  47.9003000  22.8953000
  35.0580000  47.1713000  24.1433000  40.7530000  51.6583000  18.9753000
  40.1010000  52.2433000  18.5883000  41.5470000  52.1893000  19.0343000
  34.6780000  48.7473000  19.3733000  35.4510000  48.2003000  19.2353000
  35.0310000  49.6113000  19.5853000  37.0150000  44.9063000  17.0053000
  37.2670000  44.3843000  16.2443000  36.0770000  44.7433000  17.1083000
  42.2300000  49.3473000  19.5123000  41.5950000  49.4203000  20.2243000
  41.9000000  49.9363000  18.8333000  47.4600000  43.8473000  25.7163000
  48.1930000  43.2773000  25.9503000  46.7040000  43.4593000  26.1573000
  36.7340000  46.8093000  19.2083000  36.6180000  46.1333000  19.8763000
  36.8450000  46.3223000  18.3913000  39.0780000  46.2703000  22.9123000
  38.7130000  45.7433000  23.6243000  39.9340000  45.8803000  22.7393000
  38.7180000  41.2993000  17.9083000  38.8860000  42.1673000  18.2753000
  38.5280000  41.4623000  16.9853000  38.6970000  43.7553000  18.8933000
  38.5770000  44.2003000  19.7323000  38.0020000  44.1033000  18.3343000
  36.4580000  56.5253000  22.5423000  36.3800000  57.4763000  22.6213000
  35.8540000  56.1803000  23.2003000  44.3960000  44.2273000  19.7213000
  45.3070000  44.4603000  19.5463000  43.8870000  44.8103000  19.1593000
  43.0030000  49.2093000  27.1123000  42.3730000  49.3743000  26.4103000
  42.6150000  49.6243000  27.8843000  46.8810000  50.1453000  24.4673000
  46.1970000  50.5253000  23.9173000  46.9660000  50.7543000  25.2003000
  38.5550000  48.9473000  24.3773000  39.0190000  49.2263000  23.5883000
  38.2910000  48.0453000  24.1953000  37.4920000  45.0693000  21.1863000
  38.1950000  45.5213000  21.6543000  37.1600000  44.4283000  21.8143000
  45.2510000  50.6683000  29.2393000  46.0730000  50.2663000  28.9573000
  45.2470000  50.5653000  30.1903000  53.3420000  47.0123000  25.5873000
  52.5880000  46.4433000  25.4323000  53.4770000  46.9783000  26.5343000
  38.7320000  51.8833000  21.2633000  38.5960000  52.7283000  21.6913000
  39.2730000  52.0853000  20.4993000  32.1850000  49.4013000  21.8353000
  32.6970000  50.1953000  21.9863000  32.8370000  48.7033000  21.7693000
  33.9940000  52.5173000  23.9183000  34.1710000  53.4393000  23.7303000
  34.7900000  52.2033000  24.3473000  30.1490000  47.7303000  22.6113000
  30.9870000  48.1393000  22.3953000  30.3270000  46.7903000  22.5813000
  42.0460000  45.3973000  18.3003000  41.5310000  46.1683000  18.5393000
  41.7740000  44.7243000  18.9233000  47.0190000  48.1503000  20.2353000
  46.2420000  47.8113000  19.7913000  47.6980000  48.1563000  19.5613000
  41.8350000  43.2703000  20.1263000  41.5300000  43.5843000  20.9773000
  42.7880000  43.3483000  20.1683000  40.2790000  49.4293000  21.7753000
  39.7510000  48.6943000  21.4623000  39.7780000  50.2063000  21.5293000
  45.2580000  47.6243000  26.8923000  44.6010000  48.3143000  26.9803000
  46.0630000  48.0133000  27.2353000  35.3380000  42.1213000  18.1553000
  34.5020000  42.4593000  18.4763000  35.1980000  41.9863000  17.2183000
  37.3130000  36.9653000  22.8633000  36.6600000  36.6503000  22.2393000
  37.2710000  36.3433000  23.5893000  38.4240000  47.2473000  14.7793000
  37.5170000  47.0163000  14.9783000  38.9220000  46.4513000  14.9663000
  41.3310000  55.9573000  17.6983000  40.6570000  56.2603000  18.3073000
  41.7180000  56.7603000  17.3493000  41.3310000  44.8523000  22.3183000
  42.0780000  45.3643000  22.0093000  41.6000000  44.5313000  23.1793000
  39.6030000  47.3483000  19.3013000  38.6940000  47.0643000  19.3983000
  39.6330000  47.7683000  18.4413000  44.8350000  50.9593000  23.0703000
  44.3810000  50.1183000  23.1273000  44.2050000  51.5953000  23.4083000
  43.2780000  52.7963000  24.0053000  43.5710000  53.3573000  23.2863000
  43.7880000  53.0893000  24.7603000  30.1720000  45.0693000  23.2823000
  29.9750000  44.4763000  22.5583000  29.6170000  44.7643000  24.0003000
  39.3010000  48.8893000  16.6403000  38.8630000  48.1733000  16.1803000
  40.0420000  49.1173000  16.0783000  38.2420000  53.5743000  25.0943000
  38.1990000  53.8013000  24.1653000  39.1580000  53.3413000  25.2433000
  47.4180000  47.1653000  22.6973000  47.2800000  47.3553000  21.7703000
  47.0620000  47.9273000  23.1543000  47.4450000  49.2323000  27.7093000
  47.8790000  49.1403000  28.5573000  48.1580000  49.2083000  27.0713000
  36.3580000  50.4513000  24.8913000  37.1520000  49.9563000  24.6893000
  35.6480000  49.9233000  24.5273000  32.6670000  44.5953000  20.9673000
  31.7360000  44.5343000  21.1843000  32.7620000  44.0733000  20.1703000
  48.3070000  49.2753000  30.2423000  48.5000000  50.1793000  30.4883000
  48.2070000  48.8163000  31.0763000  39.5300000  56.1253000  19.9133000
  39.7060000  55.6533000  20.7273000  38.8440000  56.7513000  20.1413000
  40.4860000  50.4023000  25.9593000  40.1510000  50.3623000  26.8553000
  39.9860000  49.7363000  25.4863000  43.4220000  47.7473000  16.2333000
  42.8050000  47.0223000  16.1363000  42.9540000  48.5083000  15.8903000
  34.0960000  59.2743000  26.6873000  34.3360000  59.9053000  27.3653000
  33.2530000  58.9223000  26.9733000  35.2120000  41.9663000  15.3553000
  34.3350000  41.8453000  14.9913000  35.6880000  41.1753000  15.1033000
  26.7320000  46.7543000  25.4493000  27.4190000  46.4403000  24.8613000
  26.5770000  47.6583000  25.1763000  38.6090000  55.0813000  29.0913000
  38.5360000  55.8873000  29.6033000  38.1670000  55.2813000  28.2663000
  38.3980000  54.3193000  22.6013000  37.6150000  54.8613000  22.6953000
  39.0980000  54.8363000  23.0013000  49.5610000  45.8323000  26.8873000
  49.5500000  46.7153000  26.5163000  48.6930000  45.4793000  26.6923000
  41.0690000  54.9803000  31.2473000  41.7820000  55.6153000  31.1743000
  40.5780000  55.0773000  30.4313000  42.7910000  48.8853000  22.8193000
  41.8570000  49.0053000  22.6493000  42.9690000  47.9833000  22.5553000
  46.1780000  44.7273000  23.3543000  46.6440000  45.5603000  23.2803000
  46.6290000  44.2623000  24.0583000  44.2460000  51.0713000  20.3523000
  44.5220000  50.9573000  21.2623000  43.3760000  50.6733000  20.3133000
  40.8810000  55.3203000  23.9963000  41.0630000  54.5023000  24.4583000
  41.7040000  55.5373000  23.5583000  41.2150000  54.2473000  21.2573000
  41.7440000  53.7363000  20.6443000  41.4780000  53.9313000  22.1223000
  31.7170000  52.2633000  29.0013000  32.3020000  51.5183000  29.1333000
  31.5200000  52.5743000  29.8843000  34.5710000  55.2983000  24.0173000
  33.9020000  55.7833000  23.5333000  34.4320000  55.5453000  24.9313000
  26.3090000  44.8343000  27.7213000  26.3470000  44.3003000  28.5153000
  25.8030000  44.3073000  27.1023000  38.7110000  57.3333000  30.6153000
  39.2630000  57.4963000  31.3803000  39.0520000  57.9233000  29.9433000
  29.9400000  43.5603000  20.7963000  30.2350000  42.6513000  20.7433000
  29.0390000  43.5393000  20.4743000  41.8480000  55.2813000  27.6013000
  41.7230000  54.4803000  27.0933000  42.5060000  55.7763000  27.1133000
  43.9120000  53.0823000  29.2293000  42.9650000  52.9623000  29.1573000
  44.2600000  52.1943000  29.3123000  31.6690000  41.2423000  20.9203000
  31.3400000  40.3613000  20.7383000  32.0220000  41.1863000  21.8083000
  40.9160000  52.8773000  25.4303000  40.7690000  51.9493000  25.6113000
  41.7420000  52.8993000  24.9463000  34.7830000  41.5293000  21.2883000
  35.1220000  42.0573000  20.5663000  35.2300000  41.8673000  22.0643000
  44.5200000  53.7003000  26.5163000  45.4450000  53.4943000  26.3793000
  44.3510000  53.4523000  27.4253000  36.7690000  40.0263000  19.4873000
  37.4900000  40.4043000  18.9843000  36.1460000  40.7453000  19.5913000
  40.9130000  40.7313000  20.4233000  41.1290000  41.6133000  20.1223000
  40.4320000  40.3403000  19.6943000  44.3090000  54.2193000  21.8733000
  44.4830000  53.6533000  21.1203000  44.8020000  55.0193000  21.6903000
  36.9160000  39.5613000  22.3173000  37.0370000  38.6333000  22.5163000
  36.6260000  39.5753000  21.4053000  50.1630000  46.9823000  23.4923000
  50.6060000  46.2333000  23.0933000  49.2860000  46.9733000  23.1093000
  45.2970000  53.5353000  18.9723000  45.9920000  54.1563000  19.1913000
  45.6390000  52.6853000  19.2473000  47.1960000  50.9853000  20.5013000
  47.7210000  51.3243000  19.7763000  47.1080000  50.0503000  20.3173000
  38.8580000  54.8993000  32.6303000  39.1670000  54.6533000  33.5023000
  39.6560000  55.1033000  32.1423000  38.8800000  57.0523000  24.8603000
  38.4410000  56.5603000  25.5543000  39.6310000  56.5103000  24.6203000
  31.3590000  53.2443000  24.8633000  32.1850000  52.9443000  24.4833000
  31.0090000  52.4743000  25.3123000  29.5600000  51.1623000  25.8223000
  28.7230000  50.7343000  25.6403000  29.5330000  51.3553000  26.7593000
  35.8890000  51.1473000  20.4093000  36.0380000  51.8303000  19.7553000
  36.6960000  51.1273000  20.9233000  48.5070000  50.8873000  33.3643000
  48.2160000  51.2503000  34.2003000  47.8940000  50.1743000  33.1853000
  49.7070000  48.4533000  25.8843000  50.5410000  48.8923000  26.0483000
  49.8430000  47.9773000  25.0653000  33.6440000  47.1733000  21.4153000
  33.3990000  46.2693000  21.6133000  33.8140000  47.1753000  20.4733000
  32.9140000  42.9063000  18.9133000  32.2210000  42.9803000  18.2573000
  32.6690000  42.1423000  19.4353000  39.3880000  53.6413000  17.8803000
  38.8160000  54.2603000  17.4273000  39.9620000  54.1913000  18.4143000
  42.6080000  53.9253000  19.0113000  43.5410000  53.8603000  19.2143000
  42.5200000  54.7613000  18.5523000  45.2370000  53.2423000  15.9713000
  45.1580000  52.9083000  16.8653000  46.0580000  53.7343000  15.9703000
  39.7730000  44.9773000  15.2213000  40.7190000  44.8483000  15.2903000
  39.3950000  44.2393000  15.6983000  53.7520000  47.1693000  28.3193000
  54.4830000  46.9083000  28.8803000  53.1430000  46.4323000  28.3593000
  51.8340000  45.3103000  28.9173000  51.1070000  45.1763000  28.3083000
  51.4190000  45.6183000  29.7223000  37.9570000  42.9023000  15.1573000
  37.0510000  42.6063000  15.2333000  38.2350000  42.6053000  14.2903000
  28.8750000  44.2233000  25.6073000  28.5550000  43.3703000  25.3143000
  28.3290000  44.4383000  26.3633000  36.7270000  39.7613000  15.2983000
  37.5890000  40.0873000  15.5583000  36.9120000  38.9743000  14.7853000
  49.4520000  41.5313000  26.2703000  50.0460000  41.2913000  25.5593000
  49.5240000  40.8123000  26.8973000  31.6710000  55.3753000  26.5843000
  31.5370000  54.6153000  26.0183000  31.2550000  56.0993000  26.1173000
  42.8070000  50.5583000  15.5923000  43.5110000  50.7633000  16.2083000
  42.0840000  51.1263000  15.8573000  43.6370000  46.3093000  21.7123000
  43.5810000  46.7663000  20.8733000  44.1900000  45.5493000  21.5343000
  47.4480000  42.0983000  22.5373000  47.1910000  41.6983000  23.3683000
  46.8230000  42.8133000  22.4123000  51.7590000  44.8383000  25.0443000
  51.1990000  44.9073000  25.8173000  51.1530000  44.6623000  24.3243000
  34.8280000  56.2723000  26.7963000  34.7120000  57.2163000  26.6943000
  34.0080000  55.9693000  27.1853000  44.7160000  50.9973000  17.6423000
  45.5510000  50.5653000  17.4603000  44.5540000  50.8253000  18.5693000
  44.3710000  47.5003000  19.0073000  44.3150000  47.3343000  18.0663000
  43.7450000  48.2083000  19.1643000  37.6800000  37.0013000  18.5863000
  37.6680000  37.9453000  18.7433000  38.5730000  36.8183000  18.2923000
  35.8540000  56.9253000  30.0123000  36.7570000  56.9573000  30.3283000
  35.6280000  55.9953000  30.0263000  37.6090000  55.6783000  26.6733000
  36.6590000  55.6783000  26.5593000  37.9120000  54.9313000  26.1563000
  53.3440000  61.5143000  27.7373000  53.9820000  61.3943000  27.0343000
  53.2270000  62.4623000  27.7963000  50.1530000  61.4663000  27.6733000
  49.8150000  61.3513000  26.7863000  51.0220000  61.0663000  27.6543000
  46.0120000  63.3203000  23.6633000  45.4490000  63.2293000  22.8953000
  45.8970000  62.5003000  24.1433000  50.6350000  62.6203000  33.6323000
  50.6240000  62.2253000  32.7603000  50.7970000  61.8873000  34.2253000
  43.5590000  64.8153000  26.5023000  44.3510000  64.4743000  26.0863000
  43.7980000  64.9253000  27.4223000  47.3560000  65.4043000  32.5803000
  47.0650000  66.3083000  32.4653000  47.9920000  65.4453000  33.2943000
  48.2820000  62.7813000  29.1703000  48.8780000  62.5573000  28.4563000
  48.3390000  62.0403000  29.7733000  52.8990000  59.2393000  24.8133000
  53.6850000  58.8213000  24.4623000  53.1620000  60.1433000  24.9813000
  58.2990000  59.1763000  25.7163000  59.0320000  58.6063000  25.9503000
  57.5430000  58.7893000  26.1573000  49.9170000  61.5993000  22.9123000
  49.5530000  61.0723000  23.6243000  50.7740000  61.2093000  22.7393000
  55.8220000  52.8893000  30.1753000  55.4900000  53.7583000  29.9523000
  55.2260000  52.5723000  30.8553000  52.3150000  65.0903000  29.5753000
  52.0150000  65.9923000  29.4673000  51.9700000  64.8233000  30.4273000
  45.7660000  61.5413000  25.6093000  44.8410000  61.4093000  25.8163000
  46.0150000  62.3213000  26.1063000  55.7150000  57.6083000  27.2553000
  54.8060000  57.5403000  26.9613000  55.6640000  58.0853000  28.0833000
  43.1270000  61.1843000  26.4433000  43.2560000  61.4383000  27.3573000
  42.4470000  61.7773000  26.1243000  49.7890000  59.0273000  35.1983000
  49.0120000  59.5863000  35.1893000  50.4280000  59.5133000  35.7203000
  57.5810000  55.8103000  29.0333000  56.9380000  56.1033000  28.3873000
  57.0760000  55.6953000  29.8383000  48.0440000  61.8363000  34.7603000
  48.7850000  62.3743000  34.4843000  47.3370000  62.4623000  34.9173000
  53.5190000  63.9783000  33.3573000  53.9270000  63.5373000  32.6133000
  52.7970000  63.4043000  33.6113000  49.8720000  58.9163000  30.7313000
  50.7180000  59.3403000  30.8743000  49.8120000  58.2593000  31.4243000
  53.8420000  64.5393000  27.1123000  53.2130000  64.7033000  26.4103000
  53.4550000  64.9533000  27.8843000  53.0220000  56.5763000  32.3893000
  52.7780000  57.3303000  31.8523000  53.2980000  56.9553000  33.2233000
  54.9760000  63.1203000  31.0663000  55.1880000  63.7633000  30.3903000
  54.9290000  62.2863000  30.5993000  52.5790000  55.7323000  27.9703000
  51.7170000  56.0303000  28.2623000  52.6050000  55.9493000  27.0383000
  49.3950000  64.2763000  24.3773000  49.8590000  64.5553000  23.5883000
  49.1300000  63.3743000  24.1953000  46.2870000  63.8233000  27.3153000
  46.8570000  64.2523000  26.6773000  46.8780000  63.5413000  28.0143000
  48.3320000  60.3983000  21.1863000  49.0340000  60.8503000  21.6543000
  48.0000000  59.7573000  21.8143000  46.7800000  58.9893000  35.5623000
  46.1500000  59.6713000  35.7953000  46.6730000  58.8783000  34.6173000
  42.0740000  58.6573000  26.4883000  41.2840000  58.9123000  26.0123000
  42.5650000  59.4723000  26.5933000  56.0910000  65.9973000  29.2393000
  56.9120000  65.5953000  28.9573000  56.0870000  65.8943000  30.1903000
  44.0260000  59.0213000  23.4463000  43.2290000  59.1333000  23.9653000
  43.7980000  59.3603000  22.5813000  49.8560000  65.5463000  31.3953000
  49.9210000  66.0083000  32.2313000  49.1470000  64.9153000  31.5233000
  40.3580000  58.9103000  28.9203000  40.6090000  59.7943000  29.1853000
  40.8940000  58.7303000  28.1473000  43.0240000  64.7303000  21.8353000
  43.5360000  65.5243000  21.9863000  43.6760000  64.0333000  21.7693000
  44.8330000  67.8473000  23.9183000  45.0100000  68.7683000  23.7303000
  45.6290000  67.5323000  24.3473000  48.9750000  54.7073000  35.5163000
  49.7160000  55.3083000  35.4373000  49.2060000  53.9653000  34.9583000
  44.1190000  59.8933000  33.7943000  44.0040000  58.9923000  34.0953000
  43.2630000  60.1393000  33.4423000  51.1980000  67.8353000  35.3933000
  50.7540000  67.0483000  35.0753000  51.8600000  68.0233000  34.7273000
  45.9570000  69.3643000  29.9193000  46.5070000  69.2363000  29.1463000
  45.1180000  69.6643000  29.5683000  53.2960000  68.1153000  33.4213000
  53.2780000  68.9363000  32.9293000  54.2180000  67.9903000  33.6463000
  49.7530000  65.6293000  34.2633000  50.2860000  64.8683000  34.0333000
  49.2250000  65.3373000  35.0063000  52.9200000  50.7353000  29.7933000
  52.5770000  51.6263000  29.7163000  53.2880000  50.5463000  28.9293000
  40.9890000  63.0593000  22.6113000  41.8260000  63.4693000  22.3953000
  41.1670000  62.1193000  22.5813000  50.4700000  55.5713000  23.3583000
  49.6140000  55.1823000  23.1793000  50.8830000  55.6513000  22.4983000
  52.0000000  53.1063000  27.7573000  51.4960000  53.0693000  26.9443000
  52.2930000  54.0153000  27.8173000  48.2440000  53.1903000  26.7643000
  49.1090000  52.9943000  26.4053000  48.3120000  52.9613000  27.6913000
  52.6740000  58.5993000  20.1263000  52.3690000  58.9143000  20.9773000
  53.6270000  58.6773000  20.1683000  56.0980000  62.9533000  26.8923000
  55.4400000  63.6433000  26.9803000  56.9020000  63.3433000  27.2353000
  45.8500000  55.4203000  24.1363000  46.4250000  55.1983000  23.4033000
  46.4380000  55.4893000  24.8893000  54.9080000  61.3073000  24.9423000
  55.4220000  61.9403000  25.4443000  55.5590000  60.7083000  24.5763000
  46.1770000  57.4503000  18.1553000  45.3410000  57.7883000  18.4763000
  46.0380000  57.3153000  17.2183000  48.1530000  52.2943000  22.8633000
  47.4990000  51.9793000  22.2393000  48.1110000  51.6723000  23.5893000
  51.3860000  58.7823000  27.1883000  50.4690000  59.0043000  27.0303000
  51.8020000  58.8573000  26.3293000  52.1700000  60.1813000  22.3183000
  52.9170000  60.6943000  22.0093000  52.4390000  59.8603000  23.1793000
  54.6180000  57.2173000  24.3003000  53.8800000  56.7053000  24.6313000
  54.8710000  56.7773000  23.4883000  54.7190000  49.9953000  24.8943000
  55.0250000  49.1353000  24.6073000  55.4440000  50.5873000  24.6943000
  41.0110000  60.3983000  23.2823000  40.8140000  59.8053000  22.5583000
  40.4560000  60.0933000  24.0003000  48.9910000  60.2903000  25.4023000
  49.0460000  59.3383000  25.3263000  48.1800000  60.4463000  25.8863000
  46.9300000  58.9083000  23.1613000  46.1170000  59.2073000  23.5673000
  47.4260000  58.5133000  23.8783000  52.5280000  59.3723000  31.9923000
  52.8830000  59.5993000  32.8523000  53.1750000  59.7043000  31.3703000
  46.4220000  56.4803000  28.7773000  47.0620000  56.3393000  28.0793000
  45.5900000  56.1933000  28.4013000  58.2840000  64.5623000  27.7093000
  58.7180000  64.4693000  28.5573000  58.9980000  64.5373000  27.0713000
  47.1980000  65.7803000  24.8913000  47.9920000  65.2853000  24.6893000
  46.4870000  65.2523000  24.5273000  52.0170000  68.1623000  29.2423000
  52.0710000  68.7313000  30.0103000  51.1490000  68.3323000  28.8773000
  43.5060000  59.9243000  20.9673000  42.5760000  59.8633000  21.1843000
  43.6020000  59.4023000  20.1703000  43.4250000  56.4503000  23.5543000
  43.6850000  57.3643000  23.4453000  44.2460000  55.9823000  23.7043000
  44.8970000  57.8643000  30.7243000  45.5690000  57.6553000  30.0763000
  44.0700000  57.6663000  30.2853000  50.8000000  54.4903000  32.7413000
  50.1520000  55.1893000  32.6473000  51.5700000  54.9233000  33.1083000
  54.2080000  64.7553000  35.8163000  54.0560000  64.5263000  34.8993000
  54.1980000  65.7123000  35.8293000  50.9760000  62.3283000  30.8013000
  51.9050000  62.4793000  30.6273000  50.5550000  62.4163000  29.9453000
  49.7750000  66.3533000  28.5703000  49.6360000  65.9853000  29.4433000
  48.9860000  66.8683000  28.3993000  51.3250000  65.7313000  25.9593000
  50.9900000  65.6913000  26.8553000  50.8260000  65.0663000  25.4863000
  45.3000000  61.1383000  31.4853000  45.1620000  60.4063000  32.0863000
  46.2100000  61.0493000  31.2033000  47.9280000  60.8503000  30.9733000
  48.6380000  60.2093000  30.9323000  47.8850000  61.1013000  31.8963000
  46.6410000  57.8363000  32.7923000  46.1050000  57.3853000  33.4453000
  46.0530000  57.9713000  32.0493000  44.9360000  74.6033000  26.6873000
  45.1760000  75.2353000  27.3653000  44.0930000  74.2523000  26.9733000
  55.9190000  65.7513000  32.1253000  55.0310000  65.4133000  32.2483000
  56.4880000  65.0193000  32.3623000  37.5710000  62.0833000  25.4493000
  38.2590000  61.7693000  24.8613000  37.4160000  62.9873000  25.1763000
  42.3750000  56.9723000  29.8783000  42.2910000  56.3653000  29.1433000
  41.5530000  57.4633000  29.8793000  49.4490000  70.4113000  29.0913000
  49.3760000  71.2163000  29.6033000  49.0060000  70.6103000  28.2663000
  52.5470000  55.4573000  25.2453000  53.0440000  54.7043000  24.9253000
  51.7760000  55.4943000  24.6793000  60.4000000  61.1613000  26.8873000
  60.3890000  62.0443000  26.5163000  59.5320000  60.8083000  26.6923000
  49.1310000  57.5993000  24.9723000  48.7610000  57.0463000  25.6603000
  49.6270000  56.9953000  24.4193000  57.0180000  60.0563000  23.3543000
  57.4840000  60.8893000  23.2803000  57.4680000  59.5913000  24.0583000
  46.9600000  68.0593000  32.0673000  47.6610000  68.6923000  32.2203000
  46.4890000  68.4003000  31.3073000  54.9890000  52.4243000  27.3933000
  54.0750000  52.6553000  27.5613000  55.4180000  52.5083000  28.2443000
  54.7600000  60.6133000  29.8933000  54.1070000  60.8613000  29.2383000
  55.1380000  59.8003000  29.5593000  50.8090000  61.3553000  36.3793000
  50.1330000  61.2553000  37.0503000  51.6310000  61.1993000  36.8433000
  42.5560000  67.5923000  29.0013000  43.1420000  66.8473000  29.1333000
  42.3590000  67.9033000  29.8843000  37.1480000  60.1633000  27.7213000
  37.1870000  59.6293000  28.5153000  36.6420000  59.6363000  27.1023000
  44.5270000  55.0093000  31.2173000  44.5910000  55.8713000  30.8053000
  44.4640000  54.3973000  30.4843000  44.0030000  57.0823000  34.8653000
  44.6300000  56.6993000  35.4783000  43.1450000  56.8633000  35.2303000
  54.4020000  67.4883000  36.4703000  54.9460000  68.1013000  35.9753000
  53.8210000  68.0463000  36.9873000  40.7790000  58.8893000  20.7963000
  41.0740000  57.9803000  20.7433000  39.8780000  58.8683000  20.4743000
  44.3090000  56.9653000  26.7793000  43.5870000  57.5793000  26.6403000
  45.0980000  57.5013000  26.7013000  54.7510000  68.4113000  29.2293000
  53.8040000  68.2923000  29.1573000  55.0990000  67.5233000  29.3123000
  47.1110000  54.3003000  33.0533000  47.6350000  54.5473000  33.8163000
  46.8920000  55.1323000  32.6343000  42.5080000  56.5713000  20.9203000
  42.1790000  55.6913000  20.7383000  42.8620000  56.5163000  21.8083000
  45.6220000  56.8583000  21.2883000  45.9620000  57.3873000  20.5663000
  46.0690000  57.1963000  22.0643000  48.3160000  55.2423000  30.7383000
  47.9760000  54.4433000  31.1403000  47.6100000  55.5423000  30.1663000
  48.9680000  52.3273000  29.1913000  49.7910000  51.8533000  29.0693000
  49.2120000  53.1063000  29.6913000  47.6090000  55.3563000  19.4873000
  48.3300000  55.7343000  18.9843000  46.9850000  56.0743000  19.5913000
  51.7520000  56.0603000  20.4233000  51.9680000  56.9433000  20.1223000
  51.2710000  55.6693000  19.6943000  46.4920000  59.0193000  27.0003000
  46.3460000  59.3333000  27.8933000  46.0140000  59.6373000  26.4473000
  48.3520000  56.0093000  27.0483000  48.3380000  55.1133000  26.7113000
  49.0690000  56.0163000  27.6823000  50.2040000  56.4433000  29.0943000
  49.9460000  57.3643000  29.0923000  49.6730000  56.0463000  29.7843000
  40.9660000  61.5593000  29.9393000  40.4220000  62.3353000  30.0713000
  41.8440000  61.9063000  29.7813000  47.7550000  54.8903000  22.3173000
  47.8770000  53.9623000  22.5163000  47.4650000  54.9043000  21.4053000
  50.6240000  52.5763000  25.4543000  50.6470000  52.6403000  24.4993000
  51.0410000  51.7363000  25.6483000  41.7530000  60.6863000  32.8323000
  41.0110000  60.8343000  33.4183000  41.4320000  60.9473000  31.9693000
  49.6970000  70.2283000  32.6303000  50.0060000  69.9833000  33.5023000
  50.4950000  70.4323000  32.1423000  42.1990000  68.5733000  24.8633000
  43.0250000  68.2733000  24.4833000  41.8480000  67.8033000  25.3123000
  47.1670000  67.9253000  26.9333000  46.5450000  67.2623000  26.6333000
  47.8370000  67.9513000  26.2503000  40.4000000  66.4913000  25.8223000
  39.5630000  66.0643000  25.6403000  40.3720000  66.6853000  26.7593000
  47.2390000  56.4043000  36.5263000  47.2880000  57.2803000  36.1443000
  47.7820000  55.8613000  35.9533000  57.8450000  63.7973000  33.1193000
  57.8940000  63.6323000  34.0613000  57.7360000  62.9303000  32.7293000
  55.1350000  59.7803000  34.4353000  56.0360000  59.6413000  34.1443000
  55.2100000  59.9453000  35.3753000  49.4690000  57.1573000  33.2813000
  48.6000000  57.4503000  33.0093000  49.7050000  57.7413000  34.0013000
  57.5950000  61.3403000  31.8323000  58.0710000  61.5333000  31.0233000
  56.6720000  61.3963000  31.5863000  44.4840000  62.5023000  21.4153000
  44.2380000  61.5983000  21.6133000  44.6530000  62.5043000  20.4733000
  52.1730000  53.3753000  30.7973000  52.6910000  54.1113000  30.4723000
  51.8190000  53.6813000  31.6323000  43.7530000  58.2353000  18.9133000
  43.0600000  58.3103000  18.2573000  43.5080000  57.4713000  19.4353000
  52.4240000  49.7953000  26.3173000  52.7050000  49.1273000  26.9433000
  53.2090000  49.9883000  25.8053000  56.2950000  58.2163000  30.0643000
  57.2470000  58.3163000  30.0863000  56.1260000  57.4243000  30.5743000
  54.3170000  55.3023000  30.2503000  53.7220000  55.5823000  29.5553000
  54.0320000  55.7913000  31.0223000  58.7740000  61.4373000  29.1793000
  58.7420000  60.4993000  29.3653000  59.3840000  61.5153000  28.4453000
  58.9240000  58.2283000  29.2243000  58.4070000  57.4443000  29.0373000
  59.8080000  57.9003000  29.3893000  56.5850000  51.9723000  25.1843000
  56.3870000  51.6643000  26.0683000  57.1950000  52.6983000  25.3143000
  62.6730000  60.6393000  28.9173000  61.9470000  60.5053000  28.3083000
  62.2580000  60.9473000  29.7223000  50.4960000  64.3583000  36.6813000
  51.4170000  64.5363000  36.8753000  50.4610000  63.4143000  36.5293000
  39.7150000  59.5523000  25.6073000  39.3950000  58.6993000  25.3143000
  39.1680000  59.7673000  26.3633000  43.4930000  62.2693000  29.3243000
  43.7110000  63.2003000  29.3423000  43.9050000  61.9093000  30.1093000
  50.4130000  52.7753000  21.3113000  49.6030000  52.4303000  21.6873000
  51.1010000  52.4663000  21.9003000  52.3420000  51.8533000  22.9343000
  52.8950000  52.2733000  23.5933000  52.5790000  50.9273000  22.9763000
  48.3650000  57.8423000  38.7143000  48.2650000  58.7913000  38.6453000
  48.1470000  57.5143000  37.8423000  39.5830000  63.1733000  27.5763000
  38.8900000  62.7583000  27.0633000  40.3310000  63.2153000  26.9793000
  55.7200000  53.9633000  22.4423000  55.1400000  54.6223000  22.0593000
  55.4530000  53.1413000  22.0303000  54.1700000  53.3643000  24.6443000
  54.6700000  53.4753000  23.8353000  54.8140000  53.0603000  25.2843000
  48.2280000  61.2723000  37.5303000  47.7450000  62.0723000  37.7373000
  48.3150000  61.2823000  36.5773000  44.1560000  65.1623000  29.5673000
  45.1100000  65.1303000  29.5003000  43.9570000  64.7013000  30.3823000
  44.7460000  63.7323000  32.1343000  45.5650000  64.2273000  32.1583000
  45.0190000  62.8153000  32.1063000  54.5020000  56.1233000  21.4973000
  53.6150000  56.4083000  21.2793000  54.9180000  55.9633000  20.6503000
  57.8540000  56.1483000  25.2133000  58.6300000  56.6373000  25.4853000
  57.1290000  56.5743000  25.6703000  60.2910000  56.8613000  26.2703000
  60.8860000  56.6203000  25.5593000  60.3640000  56.1413000  26.8973000
  42.5110000  70.7043000  26.5843000  42.3760000  69.9443000  26.0183000
  42.0940000  71.4283000  26.1173000  58.2870000  57.4283000  22.5373000
  58.0310000  57.0273000  23.3683000  57.6620000  58.1423000  22.4123000
  62.5980000  60.1673000  25.0443000  62.0380000  60.2373000  25.8173000
  61.9930000  59.9913000  24.3243000  45.6680000  71.6013000  26.7963000
  45.5510000  72.5453000  26.6943000  44.8470000  71.2983000  27.1853000
  39.9990000  58.0663000  32.8343000  40.6450000  57.5563000  33.3223000
  39.7910000  58.8033000  33.4083000  52.5250000  65.1343000  38.3333000
  53.3940000  65.3083000  37.9713000  52.0450000  65.9533000  38.2103000
  48.5200000  52.3303000  18.5863000  48.5070000  53.2743000  18.7433000
  49.4120000  52.1473000  18.2923000  46.6930000  72.2543000  30.0123000
  47.5960000  72.2863000  30.3283000  46.4670000  71.3243000  30.0263000
  48.4490000  71.0073000  26.6733000  47.4980000  71.0073000  26.5593000
  48.7520000  70.2603000  26.1563000  52.3350000  48.9243000  22.8413000
  51.5680000  48.3703000  22.9863000  52.7460000  48.9963000  23.7023000
  44.3390000  55.2133000  36.9313000  45.2020000  54.8563000  37.1413000
  43.7660000  54.8743000  37.6193000  26.3650000   8.1833000  21.4853000
  27.1060000   8.7223000  21.2083000  25.6580000   8.8103000  21.6423000
  31.8400000  10.3263000  20.0823000  32.2490000   9.8853000  19.3373000
  31.1180000   9.7523000  20.3353000  34.4120000  12.3453000  15.9633000
  35.2340000  11.9433000  15.6813000  34.4080000  12.2423000  16.9153000
  29.5190000  14.1833000  22.1173000  29.0750000  13.3963000  21.7993000
  30.1810000  14.3713000  21.4523000  31.6170000  14.4633000  20.1453000
  31.5990000  15.2843000  19.6533000  32.5390000  14.3383000  20.3703000
  28.0750000  11.9773000  20.9883000  28.6070000  11.2163000  20.7583000
  27.5460000  11.6853000  21.7303000  37.4670000  10.9523000  16.9663000
  37.6610000  11.8563000  17.2123000  37.3670000  10.4933000  17.8003000
  32.5290000  11.1023000  22.5403000  32.3770000  10.8743000  21.6233000
  32.5190000  12.0603000  22.5543000  34.2380000  14.1343000  20.6183000
  34.1790000  13.4503000  19.9513000  34.6400000  14.8763000  20.1663000
  34.2400000  12.0983000  18.8493000  33.3520000  11.7613000  18.9723000
  34.8100000  11.3673000  19.0863000  30.2300000  16.6573000  17.9713000
  30.9430000  17.2923000  17.8993000  29.7390000  16.7543000  17.1553000
  29.1300000   7.7033000  23.1043000  28.4540000   7.6023000  23.7743000
  29.9530000   7.5473000  23.5673000  27.8720000  19.0103000  17.3403000
  28.4240000  19.1733000  18.1043000  28.2130000  19.6003000  16.6683000
  32.7230000  13.8363000  23.1943000  33.2670000  14.4493000  22.7003000
  32.1420000  14.3943000  23.7113000  33.0720000  14.7593000  15.9543000
  32.1250000  14.6393000  15.8823000  33.4210000  13.8713000  16.0373000
  28.0190000  16.5763000  19.3543000  28.3270000  16.3313000  20.2273000
  28.8160000  16.7803000  18.8663000  36.0460000  13.2953000  22.5313000
  35.2560000  13.2783000  21.9913000  35.8090000  13.8343000  23.2853000
  36.1660000  10.1453000  19.8443000  36.2160000   9.9803000  20.7853000
  36.0570000   9.2773000  19.4543000  33.4560000   6.1283000  21.1603000
  34.3570000   5.9883000  20.8683000  33.5310000   6.2933000  22.1003000
  37.6680000  12.5643000  20.0883000  37.3760000  12.9273000  20.9243000
  37.0550000  11.8513000  19.9093000  35.9160000   7.6883000  18.5563000
  36.3920000   7.8803000  17.7483000  34.9930000   7.7443000  18.3103000
  42.9130000   8.8463000  15.0443000  43.6430000   8.5853000  15.6053000
  42.3040000   8.1093000  15.0843000  28.8180000  10.7063000  23.4063000
  29.7380000  10.8843000  23.6003000  28.7830000   9.7623000  23.2543000
  26.6870000   4.1903000  25.4383000  26.5860000   5.1393000  25.3703000
  26.4690000   3.8613000  24.5663000  26.5500000   7.6193000  24.2553000
  26.0660000   8.4193000  24.4613000  26.6360000   7.6303000  23.3023000
  30.8460000  11.4823000  25.0573000  31.7150000  11.6563000  24.6963000
  30.3660000  12.3013000  24.9353000  25.0140000  18.6023000  16.7363000
  25.9170000  18.6343000  17.0533000  24.7880000  17.6723000  16.7513000
  42.5050000  23.1913000  14.4623000  43.1430000  23.0713000  13.7583000
  42.3870000  24.1393000  14.5213000  39.3140000  23.1433000  14.3983000
  38.9760000  23.0283000  13.5103000  40.1830000  22.7433000  14.3783000
  35.1730000  24.9973000  10.3883000  34.6090000  24.9063000   9.6193000
  35.0580000  24.1773000  10.8683000  39.7960000  24.2973000  20.3573000
  39.7850000  23.9023000  19.4853000  39.9580000  23.5643000  20.9503000
  32.7190000  26.4923000  13.2263000  33.5110000  26.1513000  12.8113000
  32.9590000  26.6023000  14.1463000  40.7530000  28.6643000   5.6993000
  40.1010000  29.2503000   5.3133000  41.5470000  29.1953000   5.7593000
  37.4420000  24.4583000  15.8953000  38.0390000  24.2343000  15.1803000
  37.5000000  23.7173000  16.4973000  42.0590000  20.9163000  11.5373000
  42.8450000  20.4983000  11.1863000  42.3230000  21.8203000  11.7053000
  42.2300000  26.3533000   6.2363000  41.5950000  26.4273000   6.9483000
  41.9000000  26.9433000   5.5583000  47.4600000  20.8533000  12.4403000
  48.1930000  20.2833000  12.6743000  46.7040000  20.4663000  12.8813000
  39.0780000  23.2763000   9.6373000  38.7130000  22.7493000  10.3483000
  39.9340000  22.8863000   9.4633000  44.9830000  14.5663000  16.9003000
  44.6510000  15.4353000  16.6763000  44.3870000  14.2493000  17.5793000
  41.4760000  26.7673000  16.3003000  41.1760000  27.6693000  16.1913000
  41.1310000  26.5003000  17.1523000  34.9270000  23.2183000  12.3333000
  34.0020000  23.0863000  12.5413000  35.1750000  23.9983000  12.8303000
  44.8750000  19.2853000  13.9793000  43.9670000  19.2173000  13.6853000
  44.8240000  19.7623000  14.8073000  32.2880000  22.8613000  13.1683000
  32.4170000  23.1153000  14.0823000  31.6080000  23.4543000  12.8483000
  36.4580000  33.5313000   9.2673000  36.3800000  34.4823000   9.3453000
  35.8540000  33.1863000   9.9243000  38.9500000  20.7043000  21.9233000
  38.1730000  21.2633000  21.9133000  39.5890000  21.1903000  22.4443000
  46.7420000  17.4873000  15.7573000  46.0990000  17.7803000  15.1113000
  46.2370000  17.3723000  16.5623000  37.2040000  23.5133000  21.4853000
  37.9460000  24.0513000  21.2083000  36.4980000  24.1393000  21.6423000
  42.6800000  25.6553000  20.0823000  43.0880000  25.2143000  19.3373000
  41.9570000  25.0813000  20.3353000  39.0330000  20.5933000  17.4553000
  39.8790000  21.0173000  17.5993000  38.9730000  19.9363000  18.1493000
  43.0030000  26.2163000  13.8373000  42.3730000  26.3803000  13.1353000
  42.6150000  26.6303000  14.6083000  46.8810000  27.1513000  11.1913000
  46.1970000  27.5313000  10.6413000  46.9660000  27.7613000  11.9253000
  42.1830000  18.2533000  19.1133000  41.9390000  19.0073000  18.5773000
  42.4590000  18.6323000  19.9483000  44.1370000  24.7973000  17.7913000
  44.3480000  25.4403000  17.1143000  44.0900000  23.9633000  17.3233000
  41.7390000  17.4093000  14.6953000  40.8780000  17.7073000  14.9863000
  41.7650000  17.6263000  13.7633000  38.5550000  25.9533000  11.1023000
  39.0190000  26.2323000  10.3123000  38.2910000  25.0513000  10.9193000
  35.4480000  25.5003000  14.0403000  36.0180000  25.9293000  13.4023000
  36.0390000  25.2183000  14.7383000  35.9400000  20.6673000  22.2863000
  35.3100000  21.3483000  22.5203000  35.8340000  20.5553000  21.3413000
  31.2350000  20.3343000  13.2133000  30.4450000  20.5893000  12.7373000
  31.7260000  21.1493000  13.3183000  45.2510000  27.6743000  15.9633000
  46.0730000  27.2723000  15.6813000  45.2470000  27.5713000  16.9153000
  39.0170000  27.2233000  18.1193000  39.0810000  27.6853000  18.9553000
  38.3080000  26.5923000  18.2483000  29.5190000  20.5873000  15.6443000
  29.7690000  21.4713000  15.9103000  30.0550000  20.4073000  14.8723000
  53.3420000  24.0183000  12.3123000  52.5880000  23.4493000  12.1563000
  53.4770000  23.9843000  13.2593000  38.7320000  28.8893000   7.9873000
  38.5960000  29.7353000   8.4163000  39.2730000  29.0913000   7.2243000
  35.2180000  14.9693000  24.6493000  34.8250000  14.4153000  25.3233000
  36.0350000  15.2803000  25.0393000  32.1850000  26.4073000   8.5603000
  32.6970000  27.2013000   8.7113000  32.8370000  25.7103000   8.4933000
  33.9940000  29.5243000  10.6423000  34.1710000  30.4453000  10.4543000
  34.7900000  29.2093000  11.0723000  38.1350000  16.3843000  22.2413000
  38.8760000  16.9853000  22.1613000  38.3670000  15.6423000  21.6823000
  33.2790000  21.5703000  20.5183000  33.1650000  20.6693000  20.8193000
  32.4240000  21.8163000  20.1673000  35.1170000  31.0413000  16.6433000
  35.6680000  30.9133000  15.8713000  34.2780000  31.3413000  16.2933000
  42.0810000  12.4123000  16.5173000  41.7370000  13.3033000  16.4413000
  42.4490000  12.2233000  15.6543000  41.1610000  14.7833000  14.4823000
  40.6570000  14.7463000  13.6693000  41.4540000  15.6923000  14.5423000
  37.4050000  14.8673000  13.4893000  38.2700000  14.6713000  13.1293000
  37.4730000  14.6383000  14.4163000  40.2790000  26.4353000   8.5003000
  39.7510000  25.7003000   8.1873000  39.7780000  27.2133000   8.2543000
  45.2580000  24.6303000  13.6163000  44.6010000  25.3203000  13.7043000
  46.0630000  25.0203000  13.9603000  44.0690000  22.9843000  11.6673000
  44.5820000  23.6173000  12.1693000  44.7190000  22.3853000  11.3013000
  41.3310000  32.9633000   4.4233000  40.6570000  33.2663000   5.0313000
  41.7180000  33.7663000   4.0733000  40.5470000  20.4593000  13.9133000
  39.6290000  20.6813000  13.7553000  40.9630000  20.5343000  13.0543000
  41.3310000  21.8593000   9.0433000  42.0780000  22.3713000   8.7333000
  41.6000000  21.5373000   9.9033000  44.8350000  27.9653000   9.7953000
  44.3810000  27.1243000   9.8513000  44.2050000  28.6013000  10.1323000
  43.7780000  18.8943000  11.0253000  43.0410000  18.3823000  11.3563000
  44.0310000  18.4543000  10.2133000  43.2780000  29.8033000  10.7303000
  43.5710000  30.3633000  10.0113000  43.7880000  30.0963000  11.4853000
  38.1520000  21.9673000  12.1263000  38.2070000  21.0153000  12.0513000
  37.3410000  22.1233000  12.6113000  38.2420000  30.5813000  11.8193000
  38.1990000  30.8073000  10.8903000  39.1580000  30.3473000  11.9683000
  47.4180000  24.1713000   9.4223000  47.2800000  24.3613000   8.4943000
  47.0620000  24.9333000   9.8793000  35.5820000  18.1573000  15.5023000
  36.2220000  18.0163000  14.8043000  34.7500000  17.8703000  15.1253000
  47.4450000  26.2393000  14.4333000  47.8790000  26.1463000  15.2813000
  48.1580000  26.2143000  13.7953000  36.3580000  27.4573000  11.6153000
  37.1520000  26.9623000  11.4133000  35.6480000  26.9293000  11.2523000
  41.1780000  29.8393000  15.9663000  41.2320000  30.4083000  16.7343000
  40.3090000  30.0093000  15.6023000  34.0580000  19.5413000  17.4493000
  34.7300000  19.3323000  16.8003000  33.2310000  19.3433000  17.0093000
  48.3070000  26.2813000  16.9663000  48.5000000  27.1863000  17.2123000
  48.2070000  25.8223000  17.8003000  39.9600000  16.1673000  19.4653000
  39.3130000  16.8663000  19.3723000  40.7300000  16.6003000  19.8333000
  40.1370000  24.0053000  17.5253000  41.0660000  24.1563000  17.3523000
  39.7160000  24.0933000  16.6703000  38.9360000  28.0303000  15.2953000
  38.7970000  27.6623000  16.1673000  38.1470000  28.5453000  15.1233000
  39.5300000  33.1313000   6.6373000  39.7060000  32.6603000   7.4523000
  38.8440000  33.7573000   6.8663000  40.4860000  27.4083000  12.6843000
  40.1510000  27.3683000  13.5803000  39.9860000  26.7433000  12.2113000
  34.4600000  22.8153000  18.2093000  34.3220000  22.0833000  18.8103000
  35.3710000  22.7263000  17.9273000  37.0890000  22.5273000  17.6973000
  37.7990000  21.8863000  17.6563000  37.0460000  22.7783000  18.6203000
  35.8020000  19.5133000  19.5173000  35.2650000  19.0623000  20.1693000
  35.2130000  19.6483000  18.7743000  34.0960000  36.2803000  13.4113000
  34.3360000  36.9123000  14.0893000  33.2530000  35.9293000  13.6983000
  45.0790000  27.4283000  18.8493000  44.1920000  27.0903000  18.9723000
  45.6490000  26.6963000  19.0863000  31.5360000  18.6493000  16.6023000
  31.4510000  18.0423000  15.8673000  30.7140000  19.1403000  16.6033000
  38.6090000  32.0883000  15.8163000  38.5360000  32.8933000  16.3283000
  38.1670000  32.2873000  14.9903000  38.3980000  31.3253000   9.3263000
  37.6150000  31.8673000   9.4203000  39.0980000  31.8423000   9.7253000
  41.7080000  17.1343000  11.9693000  42.2050000  16.3813000  11.6493000
  40.9370000  17.1713000  11.4043000  49.5610000  22.8383000  13.6113000
  49.5500000  23.7213000  13.2413000  48.6930000  22.4863000  13.4173000
  41.0690000  31.9863000  17.9713000  41.7820000  32.6213000  17.8993000
  40.5780000  32.0833000  17.1553000  42.7910000  25.8913000   9.5433000
  41.8570000  26.0123000   9.3743000  42.9690000  24.9893000   9.2793000
  38.2910000  19.2763000  11.6963000  37.9210000  18.7233000  12.3853000
  38.7870000  18.6723000  11.1443000  46.1780000  21.7333000  10.0783000
  46.6440000  22.5663000  10.0043000  46.6290000  21.2683000  10.7833000
  36.1200000  29.7363000  18.7923000  36.8210000  30.3693000  18.9453000
  35.6500000  30.0773000  18.0323000  44.2460000  28.0783000   7.0773000
  44.5220000  27.9633000   7.9863000  43.3760000  27.6793000   7.0383000
  44.1500000  14.1013000  14.1173000  43.2360000  14.3323000  14.2853000
  44.5790000  14.1853000  14.9693000  43.9200000  22.2903000  16.6173000
  43.2680000  22.5383000  15.9623000  44.2980000  21.4773000  16.2833000
  40.8810000  32.3263000  10.7203000  41.0630000  31.5083000  11.1833000
  41.7040000  32.5433000  10.2833000  41.2150000  31.2533000   7.9823000
  41.7440000  30.7423000   7.3693000  41.4780000  30.9373000   8.8463000
  39.9690000  23.0323000  23.1043000  39.2930000  22.9323000  23.7743000
  40.7920000  22.8763000  23.5673000  31.7170000  29.2693000  15.7253000
  32.3020000  28.5243000  15.8583000  31.5200000  29.5803000  16.6093000
  34.5710000  32.3053000  10.7413000  33.9020000  32.7893000  10.2583000
  34.4320000  32.5513000  11.6563000  38.7110000  34.3393000  17.3403000
  39.2630000  34.5023000  18.1043000  39.0520000  34.9293000  16.6683000
  33.6880000  16.6863000  17.9423000  33.7520000  17.5483000  17.5303000
  33.6250000  16.0743000  17.2093000  33.1630000  18.7593000  21.5893000
  33.7900000  18.3763000  22.2033000  32.3060000  18.5403000  21.9553000
  41.8480000  32.2873000  14.3263000  41.7230000  31.4863000  13.8173000
  42.5060000  32.7823000  13.8373000  33.4690000  18.6423000  13.5043000
  32.7480000  19.2563000  13.3643000  34.2580000  19.1783000  13.4253000
  43.9120000  30.0883000  15.9543000  42.9650000  29.9693000  15.8823000
  44.2600000  29.2003000  16.0373000  36.2720000  15.9773000  19.7783000
  36.7950000  16.2243000  20.5403000  36.0530000  16.8093000  19.3583000
  40.9160000  29.8833000  12.1543000  40.7690000  28.9553000  12.3353000
  41.7420000  29.9053000  11.6703000  44.5200000  30.7063000  13.2413000
  45.4450000  30.5003000  13.1033000  44.3510000  30.4583000  14.1503000
  37.4770000  16.9193000  17.4633000  37.1370000  16.1203000  17.8653000
  36.7710000  17.2193000  16.8903000  38.1290000  14.0043000  15.9153000
  38.9510000  13.5303000  15.7933000  38.3720000  14.7833000  16.4153000
  35.6530000  20.6963000  13.7253000  35.5070000  21.0103000  14.6173000
  35.1750000  21.3143000  13.1723000  37.5120000  17.6863000  13.7733000
  37.4980000  16.7903000  13.4363000  38.2290000  17.6933000  14.4073000
  44.3090000  31.2253000   8.5973000  44.4830000  30.6593000   7.8443000
  44.8020000  32.0253000   8.4153000  30.1270000  23.2363000  16.6633000
  29.5820000  24.0123000  16.7953000  31.0050000  23.5833000  16.5053000
  50.1630000  23.9883000  10.2163000  50.6060000  23.2393000   9.8183000
  49.2860000  23.9793000   9.8333000  45.2970000  30.5413000   5.6973000
  45.9920000  31.1623000   5.9153000  45.6390000  29.6913000   5.9723000
  30.9140000  22.3633000  19.5563000  30.1720000  22.5113000  20.1433000
  30.5930000  22.6243000  18.6933000  47.1960000  27.9913000   7.2253000
  47.7210000  28.3303000   6.5003000  47.1080000  27.0563000   7.0423000
  38.8800000  34.0593000  11.5853000  38.4410000  33.5663000  12.2783000
  39.6310000  33.5163000  11.3443000  31.3590000  30.2503000  11.5873000
  32.1850000  29.9503000  11.2073000  31.0090000  29.4803000  12.0363000
  36.3280000  29.6023000  13.6573000  35.7060000  28.9393000  13.3573000
  36.9980000  29.6283000  12.9753000  29.5600000  28.1683000  12.5463000
  28.7230000  27.7413000  12.3653000  29.5330000  28.3623000  13.4833000
  36.4000000  18.0813000  23.2503000  36.4490000  18.9573000  22.8683000
  36.9420000  17.5383000  22.6783000  46.8850000  28.6253000  22.5313000
  46.0950000  28.6073000  21.9913000  46.6490000  29.1633000  23.2853000
  47.0050000  25.4743000  19.8443000  47.0550000  25.3093000  20.7853000
  46.8970000  24.6073000  19.4543000  35.8890000  28.1533000   7.1333000
  36.0380000  28.8363000   6.4803000  36.6960000  28.1333000   7.6483000
  44.2960000  21.4573000  21.1603000  45.1970000  21.3183000  20.8683000
  44.3700000  21.6223000  22.1003000  38.6300000  18.8343000  20.0053000
  37.7600000  19.1273000  19.7333000  38.8660000  19.4183000  20.7263000
  48.5070000  27.8943000  20.0883000  48.2160000  28.2573000  20.9243000
  47.8940000  27.1803000  19.9093000  49.7070000  25.4593000  12.6083000
  50.5410000  25.8983000  12.7723000  49.8430000  24.9833000  11.7893000
  46.7560000  23.0173000  18.5563000  47.2310000  23.2103000  17.7483000
  45.8320000  23.0733000  18.3103000  41.3340000  15.0523000  17.5223000
  41.8520000  15.7883000  17.1963000  40.9790000  15.3583000  18.3563000
  39.3880000  30.6483000   4.6043000  38.8160000  31.2673000   4.1513000
  39.9620000  31.1983000   5.1383000  45.4560000  19.8933000  16.7893000
  46.4080000  19.9933000  16.8103000  45.2860000  19.1013000  17.2993000
  42.6080000  30.9313000   5.7353000  43.5410000  30.8663000   5.9383000
  42.5200000  31.7673000   5.2773000  45.2370000  30.2483000   2.6953000
  45.1580000  29.9143000   3.5893000  46.0580000  30.7403000   2.6953000
  47.9350000  23.1143000  15.9033000  47.9020000  22.1763000  16.0893000
  48.5450000  23.1923000  15.1703000  48.0840000  19.9053000  15.9493000
  47.5680000  19.1213000  15.7623000  48.9680000  19.5773000  16.1143000
  45.7450000  13.6493000  11.9093000  45.5480000  13.3413000  12.7933000
  46.3550000  14.3753000  12.0383000  53.7520000  24.1763000  15.0443000
  54.4830000  23.9143000  15.6053000  53.1430000  23.4393000  15.0843000
  51.8340000  22.3163000  15.6413000  51.1070000  22.1823000  15.0333000
  51.4190000  22.6243000  16.4473000  32.6530000  23.9463000  16.0483000
  32.8720000  24.8773000  16.0673000  33.0660000  23.5863000  16.8343000
  37.5260000  19.5193000  25.4383000  37.4260000  20.4683000  25.3703000
  37.3080000  19.1913000  24.5663000  28.7440000  24.8503000  14.3013000
  28.0500000  24.4353000  13.7883000  29.4910000  24.8923000  13.7043000
  43.3310000  15.0413000  11.3683000  43.8310000  15.1523000  10.5603000
  43.9740000  14.7373000  12.0083000  37.3890000  22.9493000  24.2553000
  36.9060000  23.7493000  24.4613000  37.4750000  22.9593000  23.3023000
  30.6580000  24.7813000  12.1773000  30.6350000  24.8803000  11.2253000
  30.9680000  25.6283000  12.4993000  33.3160000  26.8393000  16.2923000
  34.2710000  26.8073000  16.2253000  33.1180000  26.3783000  17.1073000
  33.9060000  25.4093000  18.8593000  34.7260000  25.9043000  18.8823000
  34.1800000  24.4923000  18.8313000  47.0140000  17.8253000  11.9373000
  47.7910000  18.3153000  12.2103000  46.2890000  18.2513000  12.3943000
  49.4520000  18.5383000  12.9953000  50.0460000  18.2973000  12.2843000
  49.5240000  17.8183000  13.6223000  31.6710000  32.3813000  13.3093000
  31.5370000  31.6213000  12.7433000  31.2550000  33.1053000  12.8423000
  43.6370000  23.3163000   8.4373000  43.5810000  23.7733000   7.5973000
  44.1900000  22.5553000   8.2593000  34.8280000  33.2783000  13.5213000
  34.7120000  34.2223000  13.4193000  34.0080000  32.9753000  13.9093000
  44.7160000  28.0033000   4.3663000  45.5510000  27.5713000   4.1843000
  44.5540000  27.8313000   5.2943000  44.3710000  24.5063000   5.7323000
  44.3150000  24.3413000   4.7913000  43.7450000  25.2143000   5.8883000
  29.1600000  19.7433000  19.5583000  29.8060000  19.2333000  20.0473000
  28.9520000  20.4803000  20.1323000  35.8540000  33.9313000  16.7363000
  36.7570000  33.9633000  17.0533000  35.6280000  33.0013000  16.7513000
  37.6090000  32.6843000  13.3973000  36.6590000  32.6843000  13.2843000
  37.9120000  31.9373000  12.8813000  33.5000000  16.8903000  23.6563000
  34.3630000  16.5333000  23.8663000  32.9260000  16.5513000  24.3433000
  53.3440000  38.5203000  14.4623000  53.9820000  38.4013000  13.7583000
  53.2270000  39.4683000  14.5213000  50.1530000  38.4733000  14.3983000
  49.8150000  38.3573000  13.5103000  51.0220000  38.0723000  14.3783000
  46.0120000  40.3263000  10.3883000  45.4490000  40.2353000   9.6193000
  45.8970000  39.5063000  10.8683000  50.6350000  39.6263000  20.3573000
  50.6240000  39.2313000  19.4853000  50.7970000  38.8933000  20.9503000
  43.5590000  41.8213000  13.2263000  44.3510000  41.4803000  12.8113000
  43.7980000  41.9313000  14.1463000  47.3560000  42.4103000  19.3053000
  47.0650000  43.3143000  19.1893000  47.9920000  42.4513000  20.0193000
  48.2820000  39.7883000  15.8953000  48.8780000  39.5633000  15.1803000
  48.3390000  39.0463000  16.4973000  52.8990000  36.2453000  11.5373000
  53.6850000  35.8273000  11.1863000  53.1620000  37.1503000  11.7053000
  58.2990000  36.1833000  12.4403000  59.0320000  35.6123000  12.6743000
  57.5430000  35.7953000  12.8813000  49.9170000  38.6053000   9.6373000
  49.5530000  38.0783000  10.3483000  50.7740000  38.2153000   9.4633000
  55.8220000  29.8953000  16.9003000  55.4900000  30.7643000  16.6763000
  55.2260000  29.5783000  17.5793000  52.3150000  42.0963000  16.3003000
  52.0150000  42.9983000  16.1913000  51.9700000  41.8293000  17.1523000
  45.7660000  38.5473000  12.3333000  44.8410000  38.4153000  12.5413000
  46.0150000  39.3273000  12.8303000  55.7150000  34.6143000  13.9793000
  54.8060000  34.5463000  13.6853000  55.6640000  35.0913000  14.8073000
  43.1270000  38.1913000  13.1683000  43.2560000  38.4443000  14.0823000
  42.4470000  38.7833000  12.8483000  57.5810000  32.8163000  15.7573000
  56.9380000  33.1093000  15.1113000  57.0760000  32.7013000  16.5623000
  53.5190000  40.9853000  20.0823000  53.9270000  40.5433000  19.3373000
  52.7970000  40.4103000  20.3353000  49.8720000  35.9223000  17.4553000
  50.7180000  36.3463000  17.5993000  49.8120000  35.2653000  18.1493000
  53.8420000  41.5453000  13.8373000  53.2130000  41.7093000  13.1353000
  53.4550000  41.9593000  14.6083000  53.0220000  33.5823000  19.1133000
  52.7780000  34.3373000  18.5773000  53.2980000  33.9613000  19.9483000
  54.9760000  40.1263000  17.7913000  55.1880000  40.7693000  17.1143000
  54.9290000  39.2923000  17.3233000  52.5790000  32.7383000  14.6953000
  51.7170000  33.0363000  14.9863000  52.6050000  32.9553000  13.7633000
  49.3950000  41.2823000  11.1023000  49.8590000  41.5613000  10.3123000
  49.1300000  40.3813000  10.9193000  46.2870000  40.8293000  14.0403000
  46.8570000  41.2583000  13.4023000  46.8780000  40.5483000  14.7383000
  48.3320000  37.4053000   7.9113000  49.0340000  37.8573000   8.3783000
  48.0000000  36.7633000   8.5393000  42.0740000  35.6633000  13.2133000
  41.2840000  35.9193000  12.7373000  42.5650000  36.4783000  13.3183000
  56.0910000  43.0033000  15.9633000  56.9120000  42.6013000  15.6813000
  56.0870000  42.9003000  16.9153000  44.0260000  36.0273000  10.1713000
  43.2290000  36.1393000  10.6893000  43.7980000  36.3663000   9.3053000
  49.8560000  42.5523000  18.1193000  49.9210000  43.0143000  18.9553000
  49.1470000  41.9223000  18.2483000  40.3580000  35.9163000  15.6443000
  40.6090000  36.8013000  15.9103000  40.8940000  35.7363000  14.8723000
  43.0240000  41.7363000   8.5603000  43.5360000  42.5303000   8.7113000
  43.6760000  41.0393000   8.4933000  44.8330000  44.8533000  10.6423000
  45.0100000  45.7753000  10.4543000  45.6290000  44.5393000  11.0723000
  48.9750000  31.7143000  22.2413000  49.7160000  32.3143000  22.1613000
  49.2060000  30.9713000  21.6823000  51.1980000  44.8413000  22.1173000
  50.7540000  44.0553000  21.7993000  51.8600000  45.0293000  21.4523000
  45.9570000  46.3713000  16.6433000  46.5070000  46.2423000  15.8713000
  45.1180000  46.6703000  16.2933000  53.2960000  45.1213000  20.1453000
  53.2780000  45.9423000  19.6533000  54.2180000  44.9973000  20.3703000
  49.7530000  42.6363000  20.9883000  50.2860000  41.8753000  20.7583000
  49.2250000  42.3433000  21.7303000  52.9200000  27.7423000  16.5173000
  52.5770000  28.6323000  16.4413000  53.2880000  27.5523000  15.6543000
  40.9890000  40.0653000   9.3363000  41.8260000  40.4753000   9.1193000
  41.1670000  39.1253000   9.3063000  50.4700000  32.5783000  10.0833000
  49.6140000  32.1883000   9.9033000  50.8830000  32.6573000   9.2233000
  52.0000000  30.1123000  14.4823000  51.4960000  30.0753000  13.6693000
  52.2930000  31.0213000  14.5423000  48.2440000  30.1963000  13.4893000
  49.1090000  30.0003000  13.1293000  48.3120000  29.9673000  14.4163000
  52.6740000  35.6053000   6.8503000  52.3690000  35.9203000   7.7013000
  53.6270000  35.6833000   6.8933000  56.0980000  39.9593000  13.6163000
  55.4400000  40.6493000  13.7043000  56.9020000  40.3493000  13.9603000
  45.8500000  32.4263000  10.8603000  46.4250000  32.2043000  10.1283000
  46.4380000  32.4953000  11.6133000  54.9080000  38.3143000  11.6673000
  55.4220000  38.9473000  12.1693000  55.5590000  37.7143000  11.3013000
  46.1770000  34.4573000   4.8803000  45.3410000  34.7943000   5.2013000
  46.0380000  34.3223000   3.9433000  48.1530000  29.3003000   9.5883000
  47.4990000  28.9853000   8.9633000  48.1110000  28.6783000  10.3143000
  51.3860000  35.7893000  13.9133000  50.4690000  36.0103000  13.7553000
  51.8020000  35.8633000  13.0543000  52.1700000  37.1883000   9.0433000
  52.9170000  37.7003000   8.7333000  52.4390000  36.8663000   9.9033000
  54.6180000  34.2233000  11.0253000  53.8800000  33.7113000  11.3563000
  54.8710000  33.7833000  10.2133000  41.0110000  37.4043000  10.0073000
  40.8140000  36.8113000   9.2823000  40.4560000  37.0993000  10.7253000
  48.9910000  37.2963000  12.1263000  49.0460000  36.3443000  12.0513000
  48.1800000  37.4523000  12.6113000  46.9300000  35.9143000   9.8853000
  46.1170000  36.2143000  10.2923000  47.4260000  35.5203000  10.6033000
  52.5280000  36.3783000  18.7173000  52.8830000  36.6053000  19.5763000
  53.1750000  36.7103000  18.0953000  46.4220000  33.4863000  15.5023000
  47.0620000  33.3453000  14.8043000  45.5900000  33.1993000  15.1253000
  58.2840000  41.5683000  14.4333000  58.7180000  41.4753000  15.2813000
  58.9980000  41.5443000  13.7953000  47.1980000  42.7863000  11.6153000
  47.9920000  42.2913000  11.4133000  46.4870000  42.2583000  11.2523000
  52.0170000  45.1683000  15.9663000  52.0710000  45.7373000  16.7343000
  51.1490000  45.3383000  15.6023000  43.5060000  36.9313000   7.6913000
  42.5760000  36.8693000   7.9083000  43.6020000  36.4083000   6.8953000
  43.4250000  33.4563000  10.2793000  43.6850000  34.3713000  10.1703000
  44.2460000  32.9883000  10.4293000  44.8970000  34.8703000  17.4493000
  45.5690000  34.6623000  16.8003000  44.0700000  34.6723000  17.0093000
  59.1460000  41.6103000  16.9663000  59.3400000  42.5153000  17.2123000
  59.0460000  41.1513000  17.8003000  50.8000000  31.4963000  19.4653000
  50.1520000  32.1953000  19.3723000  51.5700000  31.9303000  19.8333000
  54.2080000  41.7613000  22.5403000  54.0560000  41.5323000  21.6233000
  54.1980000  42.7183000  22.5543000  50.9760000  39.3343000  17.5253000
  51.9050000  39.4853000  17.3523000  50.5550000  39.4223000  16.6703000
  49.7750000  43.3593000  15.2953000  49.6360000  42.9913000  16.1673000
  48.9860000  43.8743000  15.1233000  51.3250000  42.7373000  12.6843000
  50.9900000  42.6973000  13.5803000  50.8260000  42.0723000  12.2113000
  45.3000000  38.1443000  18.2093000  45.1620000  37.4123000  18.8103000
  46.2100000  38.0553000  17.9273000  47.9280000  37.8563000  17.6973000
  48.6380000  37.2153000  17.6563000  47.8850000  38.1073000  18.6203000
  55.9170000  44.7933000  20.6183000  55.8580000  44.1093000  19.9513000
  56.3190000  45.5353000  20.1663000  44.9360000  51.6093000  13.4113000
  45.1760000  52.2413000  14.0893000  44.0930000  51.2583000  13.6983000
  55.9190000  42.7573000  18.8493000  55.0310000  42.4193000  18.9723000
  56.4880000  42.0253000  19.0863000  37.5710000  39.0893000  12.1743000
  38.2590000  38.7753000  11.5863000  37.4160000  39.9933000  11.9013000
  42.3750000  33.9783000  16.6023000  42.2910000  33.3713000  15.8673000
  41.5530000  34.4693000  16.6033000  49.4490000  47.4173000  15.8163000
  49.3760000  48.2223000  16.3283000  49.0060000  47.6163000  14.9903000
  52.5470000  32.4643000  11.9693000  53.0440000  31.7113000  11.6493000
  51.7760000  32.5003000  11.4043000  60.4000000  38.1683000  13.6113000
  60.3890000  39.0503000  13.2413000  59.5320000  37.8153000  13.4173000
  51.9090000  47.3163000  17.9713000  52.6210000  47.9503000  17.8993000
  51.4180000  47.4123000  17.1553000  49.1310000  34.6053000  11.6963000
  48.7610000  34.0523000  12.3853000  49.6270000  34.0013000  11.1443000
  57.0180000  37.0623000  10.0783000  57.4840000  37.8953000  10.0043000
  57.4680000  36.5973000  10.7833000  46.9600000  45.0653000  18.7923000
  47.6610000  45.6993000  18.9453000  46.4890000  45.4063000  18.0323000
  54.9890000  29.4303000  14.1173000  54.0750000  29.6613000  14.2853000
  55.4180000  29.5143000  14.9693000  54.7600000  37.6193000  16.6173000
  54.1070000  37.8673000  15.9623000  55.1380000  36.8063000  16.2833000
  42.5560000  44.5993000  15.7253000  43.1420000  43.8533000  15.8583000
  42.3590000  44.9093000  16.6093000  37.1480000  37.1693000  14.4463000
  37.1870000  36.6363000  15.2393000  36.6420000  36.6433000  13.8273000
  49.5510000  49.6683000  17.3403000  50.1030000  49.8313000  18.1043000
  49.8910000  50.2593000  16.6683000  44.5270000  32.0163000  17.9423000
  44.5910000  32.8773000  17.5303000  44.4640000  31.4033000  17.2093000
  54.4020000  44.4943000  23.1943000  54.9460000  45.1073000  22.7003000
  53.8210000  45.0523000  23.7113000  40.7790000  35.8963000   7.5213000
  41.0740000  34.9873000   7.4683000  39.8780000  35.8743000   7.1993000
  52.6880000  47.6163000  14.3263000  52.5630000  46.8153000  13.8173000
  53.3460000  48.1113000  13.8373000  44.3090000  33.9713000  13.5043000
  43.5870000  34.5853000  13.3643000  45.0980000  34.5073000  13.4253000
  54.7510000  45.4173000  15.9543000  53.8040000  45.2983000  15.8823000
  55.0990000  44.5293000  16.0373000  47.1110000  31.3073000  19.7783000
  47.6350000  31.5533000  20.5403000  46.8920000  32.1393000  19.3583000
  42.5080000  33.5773000   7.6453000  42.1790000  32.6973000   7.4623000
  42.8620000  33.5223000   8.5323000  45.6220000  33.8643000   8.0123000
  45.9620000  34.3933000   7.2903000  46.0690000  34.2023000   8.7883000
  48.3160000  32.2483000  17.4633000  47.9760000  31.4493000  17.8653000
  47.6100000  32.5483000  16.8903000  48.9680000  29.3333000  15.9153000
  49.7910000  28.8593000  15.7933000  49.2120000  30.1123000  16.4153000
  47.6090000  32.3623000   6.2123000  48.3300000  32.7403000   5.7083000
  46.9850000  33.0813000   6.3153000  51.7520000  33.0663000   7.1483000
  51.9680000  33.9493000   6.8463000  51.2710000  32.6753000   6.4183000
  46.4920000  36.0253000  13.7253000  46.3460000  36.3393000  14.6173000
  46.0140000  36.6433000  13.1723000  48.3520000  33.0153000  13.7733000
  48.3380000  32.1193000  13.4363000  49.0690000  33.0223000  14.4073000
  50.2040000  33.4493000  15.8183000  49.9460000  34.3713000  15.8163000
  49.6730000  33.0523000  16.5083000  40.9660000  38.5653000  16.6633000
  40.4220000  39.3413000  16.7953000  41.8440000  38.9123000  16.5053000
  47.7550000  31.8973000   9.0413000  47.8770000  30.9683000   9.2413000
  47.4650000  31.9103000   8.1293000  50.6240000  29.5823000  12.1783000
  50.6470000  29.6463000  11.2233000  51.0410000  28.7423000  12.3723000
  49.6970000  47.2343000  19.3543000  50.0060000  46.9893000  20.2273000
  50.4950000  47.4393000  18.8663000  42.1990000  45.5793000  11.5873000
  43.0250000  45.2793000  11.2073000  41.8480000  44.8103000  12.0363000
  47.1670000  44.9323000  13.6573000  46.5450000  44.2693000  13.3573000
  47.8370000  44.9583000  12.9753000  40.4000000  43.4983000  12.5463000
  39.5630000  43.0703000  12.3653000  40.3720000  43.6913000  13.4833000
  57.7250000  43.9543000  22.5313000  56.9340000  43.9363000  21.9913000
  57.4880000  44.4933000  23.2853000  57.8450000  40.8033000  19.8443000
  57.8940000  40.6383000  20.7853000  57.7360000  39.9363000  19.4543000
  55.1350000  36.7863000  21.1603000  56.0360000  36.6473000  20.8683000
  55.2100000  36.9523000  22.1003000  59.3460000  43.2233000  20.0883000
  59.0550000  43.5863000  20.9243000  58.7340000  42.5103000  19.9093000
  57.5950000  38.3463000  18.5563000  58.0710000  38.5393000  17.7483000
  56.6720000  38.4023000  18.3103000  44.4840000  39.5083000   8.1393000
  44.2380000  38.6053000   8.3373000  44.6530000  39.5103000   7.1973000
  52.1730000  30.3813000  17.5223000  52.6910000  31.1173000  17.1963000
  51.8190000  30.6873000  18.3563000  43.7530000  35.2413000   5.6383000
  43.0600000  35.3163000   4.9823000  43.5080000  34.4773000   6.1603000
  52.4240000  26.8013000  13.0423000  52.7050000  26.1333000  13.6683000
  53.2090000  26.9943000  12.5293000  56.2950000  35.2233000  16.7893000
  57.2470000  35.3223000  16.8103000  56.1260000  34.4303000  17.2993000
  54.3170000  32.3083000  16.9753000  53.7220000  32.5893000  16.2793000
  54.0320000  32.7983000  17.7473000  58.7740000  38.4433000  15.9033000
  58.7420000  37.5053000  16.0893000  59.3840000  38.5223000  15.1703000
  58.9240000  35.2343000  15.9493000  58.4070000  34.4503000  15.7623000
  59.8080000  34.9063000  16.1143000  56.5850000  28.9783000  11.9093000
  56.3870000  28.6703000  12.7933000  57.1950000  29.7053000  12.0383000
  64.5920000  39.5053000  15.0443000  65.3220000  39.2433000  15.6053000
  63.9820000  38.7683000  15.0843000  62.6730000  37.6463000  15.6413000
  61.9470000  37.5113000  15.0333000  62.2580000  37.9533000  16.4473000
  50.4960000  41.3653000  23.4063000  51.4170000  41.5423000  23.6003000
  50.4610000  40.4203000  23.2543000  39.7150000  36.5583000  12.3313000
  39.3950000  35.7053000  12.0393000  39.1680000  36.7733000  13.0873000
  43.4930000  39.2753000  16.0483000  43.7110000  40.2063000  16.0673000
  43.9050000  38.9163000  16.8343000  50.4130000  29.7823000   8.0363000
  49.6030000  29.4363000   8.4113000  51.1010000  29.4723000   8.6253000
  52.3420000  28.8593000   9.6583000  52.8950000  29.2793000  10.3173000
  52.5790000  27.9333000   9.7003000  54.1700000  30.3703000  11.3683000
  54.6700000  30.4823000  10.5603000  54.8140000  30.0663000  12.0083000
  41.4970000  40.1113000  12.1773000  41.4740000  40.2093000  11.2253000
  41.8070000  40.9573000  12.4993000  44.1560000  42.1683000  16.2923000
  45.1100000  42.1373000  16.2253000  43.9570000  41.7073000  17.1073000
  44.7460000  40.7383000  18.8593000  45.5650000  41.2333000  18.8823000
  45.0190000  39.8223000  18.8313000  57.8540000  33.1543000  11.9373000
  58.6300000  33.6443000  12.2103000  57.1290000  33.5803000  12.3943000
  60.2910000  33.8673000  12.9953000  60.8860000  33.6263000  12.2843000
  60.3640000  33.1483000  13.6223000  42.5110000  47.7103000  13.3093000
  42.3760000  46.9503000  12.7433000  42.0940000  48.4343000  12.8423000
  45.6680000  48.6073000  13.5213000  45.5510000  49.5523000  13.4193000
  44.8470000  48.3043000  13.9093000  39.9990000  35.0723000  19.5583000
  40.6450000  34.5623000  20.0473000  39.7910000  35.8093000  20.1323000
  52.5250000  42.1403000  25.0573000  53.3940000  42.3143000  24.6963000
  52.0450000  42.9603000  24.9353000  46.6930000  49.2603000  16.7363000
  47.5960000  49.2923000  17.0533000  46.4670000  48.3303000  16.7513000
  48.4490000  48.0133000  13.3973000  47.4980000  48.0133000  13.2843000
  48.7520000  47.2663000  12.8813000  60.6280000  51.3623000  21.9233000
  59.8520000  51.9223000  21.9133000  61.2670000  51.8483000  22.4443000
  58.8830000  54.1713000  21.4853000  59.6240000  54.7093000  21.2083000
  58.1770000  54.7983000  21.6423000  57.6190000  51.3253000  22.2863000
  56.9890000  52.0073000  22.5203000  57.5130000  51.2133000  21.3413000
  51.1970000  51.2453000  15.6443000  51.4480000  52.1303000  15.9103000
  51.7330000  51.0663000  14.8723000  56.8970000  45.6273000  24.6493000
  56.5040000  45.0743000  25.3233000  57.7140000  45.9383000  25.0393000
  59.8140000  47.0433000  22.2413000  60.5550000  47.6433000  22.1613000
  60.0460000  46.3013000  21.6823000  54.9580000  52.2283000  20.5183000
  54.8430000  51.3273000  20.8193000  54.1020000  52.4753000  20.1673000
  63.7600000  43.0713000  16.5173000  63.4160000  43.9613000  16.4413000
  64.1280000  42.8813000  15.6543000  55.7360000  50.1993000  17.4493000
  56.4090000  49.9913000  16.8003000  54.9090000  50.0013000  17.0093000
  61.6390000  46.8253000  19.4653000  60.9920000  47.5243000  19.3723000
  62.4090000  47.2593000  19.8333000  57.4800000  50.1723000  19.5173000
  56.9440000  49.7213000  20.1693000  56.8920000  50.3063000  18.7743000
  53.2140000  49.3073000  16.6023000  53.1300000  48.7003000  15.8673000
  52.3930000  49.7983000  16.6033000  61.6480000  53.6913000  23.1043000
  60.9720000  53.5903000  23.7743000  62.4710000  53.5353000  23.5673000
  47.9880000  52.4983000  14.4463000  48.0260000  51.9653000  15.2393000
  47.4820000  51.9723000  13.8273000  55.3670000  47.3453000  17.9423000
  55.4310000  48.2063000  17.5303000  55.3030000  46.7323000  17.2093000
  54.8420000  49.4173000  21.5893000  55.4690000  49.0353000  22.2033000
  53.9850000  49.1993000  21.9553000  57.9510000  46.6363000  19.7783000
  58.4740000  46.8823000  20.5403000  57.7320000  47.4683000  19.3583000
  59.1560000  47.5773000  17.4633000  58.8150000  46.7783000  17.8653000
  58.4500000  47.8773000  16.8903000  59.8070000  44.6623000  15.9153000
  60.6300000  44.1883000  15.7933000  60.0510000  45.4413000  16.4153000
  52.5920000  53.0223000  19.5563000  51.8510000  53.1703000  20.1433000
  52.2720000  53.2823000  18.6933000  58.0790000  48.7393000  23.2503000
  58.1280000  49.6153000  22.8683000  58.6210000  48.1973000  22.6783000
  60.3090000  49.4923000  20.0053000  59.4390000  49.7853000  19.7333000
  60.5450000  50.0763000  20.7263000  63.0130000  45.7103000  17.5223000
  63.5310000  46.4463000  17.1963000  62.6580000  46.0163000  18.3563000
  61.3360000  56.6943000  23.4063000  62.2560000  56.8723000  23.6003000
  61.3010000  55.7493000  23.2543000  59.2050000  50.1773000  25.4383000
  59.1040000  51.1273000  25.3703000  58.9870000  49.8493000  24.5663000
  59.0680000  53.6073000  24.2553000  58.5850000  54.4073000  24.4613000
  59.1540000  53.6183000  23.3023000  50.8390000  50.4013000  19.5583000
  51.4840000  49.8913000  20.0473000  50.6300000  51.1383000  20.1323000
  63.3640000  57.4693000  25.0573000  64.2330000  57.6433000  24.6963000
  62.8850000  58.2893000  24.9353000  55.1780000  47.5483000  23.6563000
  56.0410000  47.1923000  23.8663000  54.6050000  47.2093000  24.3433000
   4.1030000  51.5123000  38.9913000   4.8350000  50.9423000  39.2253000
   3.3460000  51.1243000  39.4323000   3.3840000  48.1453000  42.3083000
   2.7420000  48.4383000  41.6623000   2.8800000  48.0303000  43.1133000
   3.5240000  57.8093000  37.7423000   2.8390000  58.1893000  37.1923000
   3.6080000  58.4193000  38.4763000   9.9840000  54.6763000  38.8633000
   9.2310000  54.1073000  38.7073000  10.1190000  54.6433000  39.8103000
   3.6620000  55.8153000  33.5113000   2.8850000  55.4763000  33.0663000
   4.3410000  55.8203000  32.8363000   4.0610000  54.8293000  35.9733000
   3.9220000  55.0203000  35.0453000   3.7040000  55.5913000  36.4303000
   4.0880000  56.8973000  40.9843000   4.5210000  56.8053000  41.8323000
   4.8010000  56.8733000  40.3463000   4.9490000  56.9393000  43.5173000
   5.1430000  57.8443000  43.7633000   4.8490000  56.4803000  44.3513000
   6.2030000  53.4973000  40.1623000   6.1920000  54.3793000  39.7913000
   5.3350000  53.1443000  39.9683000   2.8210000  52.3923000  36.6293000
   3.2870000  53.2243000  36.5553000   3.2710000  51.9263000  37.3343000
   6.8060000  54.6473000  36.7673000   7.2490000  53.8973000  36.3693000
   5.9280000  54.6383000  36.3843000   3.8390000  58.6503000  33.7763000
   4.3640000  58.9883000  33.0513000   3.7510000  57.7143000  33.5933000
   3.5280000  59.2833000  49.0823000   2.7380000  59.2653000  48.5423000
   3.2910000  59.8223000  49.8363000   3.6480000  56.1323000  46.3953000
   3.6980000  55.9673000  47.3363000   3.5390000  55.2653000  46.0053000
   5.1500000  58.5523000  46.6393000   4.8580000  58.9153000  47.4753000
   4.5370000  57.8393000  46.4603000   6.3490000  56.1173000  39.1593000
   7.1840000  56.5563000  39.3233000   6.4850000  55.6413000  38.3403000
   3.3980000  53.6753000  45.1073000   3.8740000  53.8683000  44.2993000
   2.4750000  53.7313000  44.8613000   4.5770000  53.7723000  42.4543000
   4.5450000  52.8343000  42.6403000   5.1870000  53.8513000  41.7213000
   4.7270000  50.5643000  42.5003000   4.2110000  49.7793000  42.3133000
   5.6110000  50.2353000  42.6653000   2.3880000  44.3083000  38.4593000
   2.1900000  43.9993000  39.3443000   2.9980000  45.0343000  38.5893000
  10.3950000  54.8343000  41.5953000  11.1250000  54.5733000  42.1553000
   9.7860000  54.0973000  41.6353000   8.4760000  52.9753000  42.1923000
   7.7500000  52.8403000  41.5843000   8.0610000  53.2833000  42.9983000
   3.6570000  48.4833000  38.4883000   4.4330000  48.9733000  38.7613000
   2.9320000  48.9093000  38.9453000   6.0940000  49.1963000  39.5453000
   6.6890000  48.9563000  38.8353000   6.1670000  48.4773000  40.1733000
   4.0900000  49.7633000  35.8133000   3.8340000  49.3633000  36.6433000
   3.4650000  50.4773000  35.6883000   8.4010000  52.5033000  38.3203000
   7.8410000  52.5723000  39.0933000   7.7960000  52.3273000  37.6003000
  12.4640000  60.5533000  43.4513000  12.1330000  61.4233000  43.2273000
  11.8690000  60.2373000  44.1303000  14.2230000  63.4743000  42.3083000
  13.5810000  63.7683000  41.6623000  13.7190000  63.3603000  43.1133000
   2.7000000  60.9563000  51.2003000   2.3070000  60.4033000  51.8743000
   3.5170000  61.2673000  51.5903000   9.5630000  58.4003000  43.0683000
   9.2190000  59.2903000  42.9923000   9.9310000  58.2103000  42.2053000
   8.6420000  60.7713000  41.0333000   8.1390000  60.7343000  40.2203000
   8.9350000  61.6803000  41.0933000   4.8870000  60.8543000  40.0403000
   5.7520000  60.6593000  39.6803000   4.9540000  60.6253000  40.9663000
   4.7950000  59.9593000  36.1393000   4.1420000  59.6443000  35.5143000
   4.7530000  59.3363000  36.8653000  11.3620000  57.6593000  38.1703000
  11.6670000  56.7993000  37.8823000  12.0870000  58.2513000  37.9703000
   7.4420000  62.1543000  46.0163000   6.7950000  62.8533000  45.9233000
   8.2120000  62.5883000  46.3843000   9.1900000  63.1223000  38.5203000
   9.6870000  62.3693000  38.2003000   8.4180000  63.1583000  37.9553000
  11.6320000  60.0893000  40.6683000  10.7180000  60.3193000  40.8363000
  12.0610000  60.1733000  41.5203000   5.6110000  59.9913000  42.4663000
   6.4330000  59.5173000  42.3443000   5.8540000  60.7703000  42.9663000
   7.2670000  60.2403000  38.7293000   7.2890000  60.3043000  37.7743000
   7.6840000  59.4013000  38.9233000   8.8160000  61.0393000  44.0733000
   9.3340000  61.7753000  43.7473000   8.4610000  61.3463000  44.9073000
   9.0670000  57.4593000  39.5933000   9.3470000  56.7923000  40.2193000
   9.8520000  57.6523000  39.0803000  10.9590000  62.9673000  43.5263000
  10.3640000  63.2473000  42.8303000  10.6740000  63.4563000  44.2973000
  15.5660000  65.8933000  42.5003000  15.0500000  65.1093000  42.3133000
  16.4500000  65.5653000  42.6653000  13.2270000  59.6373000  38.4593000
  13.0300000  59.3283000  39.3443000  13.8370000  60.3633000  38.5893000
   7.0550000  60.4403000  34.5873000   6.2460000  60.0953000  34.9623000
   7.7440000  60.1313000  35.1753000   8.9850000  59.5183000  36.2093000
   9.5380000  59.9373000  36.8683000   9.2220000  58.5913000  36.2513000
  12.3620000  61.6283000  35.7173000  11.7820000  62.2863000  35.3353000
  12.0960000  60.8063000  35.3063000  10.8130000  61.0283000  37.9193000
  11.3130000  61.1403000  37.1113000  11.4560000  60.7243000  38.5593000
  11.1450000  63.7883000  34.7733000  10.2570000  64.0733000  34.5553000
  11.5600000  63.6273000  33.9253000  14.4960000  63.8123000  38.4883000
  15.2720000  64.3023000  38.7613000  13.7710000  64.2383000  38.9453000
  16.9340000  64.5253000  39.5453000  17.5280000  64.2853000  38.8353000
  17.0060000  63.8063000  40.1733000   5.1620000  59.9953000  31.8613000
   5.1500000  60.9393000  32.0183000   6.0540000  59.8123000  31.5673000
   8.9770000  56.5893000  36.1163000   8.2110000  56.0353000  36.2623000
   9.3880000  56.6613000  36.9773000   4.1030000  28.5183000  25.7163000
   4.8350000  27.9483000  25.9503000   3.3460000  28.1303000  26.1573000
   3.3840000  25.1513000  29.0333000   2.7420000  25.4453000  28.3873000
   2.8800000  25.0373000  29.8383000   3.5240000  34.8163000  24.4673000
   2.8390000  35.1963000  23.9173000   3.6080000  35.4253000  25.2003000
   9.9840000  31.6833000  25.5873000   9.2310000  31.1133000  25.4323000
  10.1190000  31.6493000  26.5343000   3.6620000  32.8213000  20.2353000
   2.8850000  32.4823000  19.7913000   4.3410000  32.8263000  19.5613000
   4.0610000  31.8363000  22.6973000   3.9220000  32.0263000  21.7703000
   3.7040000  32.5973000  23.1543000   4.0880000  33.9033000  27.7093000
   4.5210000  33.8113000  28.5573000   4.8010000  33.8793000  27.0713000
   4.9490000  33.9463000  30.2423000   5.1430000  34.8503000  30.4883000
   4.8490000  33.4863000  31.0763000   6.2030000  30.5033000  26.8873000
   6.1920000  31.3853000  26.5163000   5.3350000  30.1503000  26.6923000
   2.8210000  29.3983000  23.3543000   3.2870000  30.2313000  23.2803000
   3.2710000  28.9323000  24.0583000   6.8060000  31.6533000  23.4923000
   7.2490000  30.9043000  23.0933000   5.9280000  31.6443000  23.1093000
   3.8390000  35.6563000  20.5013000   4.3640000  35.9953000  19.7763000
   3.7510000  34.7213000  20.3173000   3.5280000  36.2893000  35.8063000
   2.7380000  36.2723000  35.2673000   3.2910000  36.8283000  36.5613000
   3.6480000  33.1393000  33.1193000   3.6980000  32.9743000  34.0613000
   3.5390000  32.2713000  32.7293000   5.1500000  35.5583000  33.3643000
   4.8580000  35.9213000  34.2003000   4.5370000  34.8453000  33.1853000
   6.3490000  33.1233000  25.8843000   7.1840000  33.5623000  26.0483000
   6.4850000  32.6473000  25.0653000   3.3980000  30.6813000  31.8323000
   3.8740000  30.8743000  31.0233000   2.4750000  30.7373000  31.5863000
   4.5770000  30.7793000  29.1793000   4.5450000  29.8403000  29.3653000
   5.1870000  30.8573000  28.4453000   4.7270000  27.5703000  29.2243000
   4.2110000  26.7863000  29.0373000   5.6110000  27.2423000  29.3893000
   2.3880000  21.3143000  25.1843000   2.1900000  21.0053000  26.0683000
   2.9980000  22.0403000  25.3143000  10.3950000  31.8403000  28.3193000
  11.1250000  31.5793000  28.8803000   9.7860000  31.1033000  28.3593000
   8.4760000  29.9813000  28.9173000   7.7500000  29.8473000  28.3083000
   8.0610000  30.2893000  29.7223000   3.6570000  25.4893000  25.2133000
   4.4330000  25.9793000  25.4853000   2.9320000  25.9153000  25.6703000
   6.0940000  26.2023000  26.2703000   6.6890000  25.9623000  25.5593000
   6.1670000  25.4833000  26.8973000   4.0900000  26.7693000  22.5373000
   3.8340000  26.3693000  23.3683000   3.4650000  27.4843000  22.4123000
   8.4010000  29.5093000  25.0443000   7.8410000  29.5783000  25.8173000
   7.7960000  29.3333000  24.3243000   9.9870000  46.1843000  27.7373000
  10.6250000  46.0653000  27.0343000   9.8690000  47.1333000  27.7963000
   6.7960000  46.1373000  27.6733000   6.4580000  46.0213000  26.7863000
   7.6650000  45.7363000  27.6543000   7.2780000  47.2913000  33.6323000
   7.2670000  46.8963000  32.7603000   7.4400000  46.5573000  34.2253000
   8.2350000  51.6583000  18.9753000   7.5830000  52.2433000  18.5883000
   9.0290000  52.1893000  19.0343000   3.9990000  50.0743000  32.5803000
   3.7080000  50.9793000  32.4653000   4.6340000  50.1163000  33.2943000
   4.9240000  47.4523000  29.1703000   5.5210000  47.2283000  28.4563000
   4.9820000  46.7113000  29.7733000   4.4970000  44.9063000  17.0053000
   4.7490000  44.3843000  16.2443000   3.5590000  44.7433000  17.1083000
   9.5410000  43.9103000  24.8133000  10.3270000  43.4923000  24.4623000
   9.8050000  44.8143000  24.9813000   9.7120000  49.3473000  19.5123000
   9.0770000  49.4203000  20.2243000   9.3820000  49.9363000  18.8333000
  14.9420000  43.8473000  25.7163000  15.6740000  43.2773000  25.9503000
  14.1860000  43.4593000  26.1573000   4.2160000  46.8093000  19.2083000
   4.1000000  46.1333000  19.8763000   4.3270000  46.3223000  18.3913000
   6.5600000  46.2703000  22.9123000   6.1950000  45.7433000  23.6243000
   7.4160000  45.8803000  22.7393000  12.4640000  37.5593000  30.1753000
  12.1330000  38.4293000  29.9523000  11.8690000  37.2433000  30.8553000
   6.2000000  41.2993000  17.9083000   6.3670000  42.1673000  18.2753000
   6.0100000  41.4623000  16.9853000   8.9580000  49.7613000  29.5753000
   8.6580000  50.6633000  29.4673000   8.6130000  49.4943000  30.4273000
  12.3570000  42.2793000  27.2553000  11.4490000  42.2103000  26.9613000
  12.3060000  42.7563000  28.0833000   6.1790000  43.7553000  18.8933000
   6.0590000  44.2003000  19.7323000   5.4840000  44.1033000  18.3343000
   6.4310000  43.6983000  35.1983000   5.6550000  44.2573000  35.1893000
   7.0700000  44.1833000  35.7203000  14.2230000  40.4803000  29.0333000
  13.5810000  40.7743000  28.3873000  13.7190000  40.3663000  29.8383000
  11.8770000  44.2273000  19.7213000  12.7890000  44.4603000  19.5463000
  11.3680000  44.8103000  19.1593000   4.6860000  46.5063000  34.7603000
   5.4270000  47.0453000  34.4843000   3.9800000  47.1333000  34.9173000
  10.1620000  48.6493000  33.3573000  10.5700000  48.2073000  32.6133000
   9.4390000  48.0753000  33.6113000   6.5150000  43.5873000  30.7313000
   7.3610000  44.0103000  30.8743000   6.4550000  42.9303000  31.4243000
  10.4840000  49.2093000  27.1123000   9.8550000  49.3743000  26.4103000
  10.0970000  49.6243000  27.8843000  14.3630000  50.1453000  24.4673000
  13.6780000  50.5253000  23.9173000  14.4480000  50.7543000  25.2003000
   9.6650000  41.2473000  32.3893000   9.4210000  42.0013000  31.8523000
   9.9410000  41.6253000  33.2233000  11.6180000  47.7913000  31.0663000
  11.8300000  48.4343000  30.3903000  11.5710000  46.9573000  30.5993000
   9.2210000  40.4033000  27.9703000   8.3600000  40.7013000  28.2623000
   9.2470000  40.6203000  27.0383000   6.0370000  48.9473000  24.3773000
   6.5010000  49.2263000  23.5883000   5.7730000  48.0453000  24.1953000
   2.9300000  48.4943000  27.3153000   3.5000000  48.9233000  26.6773000
   3.5200000  48.2123000  28.0143000   4.9740000  45.0693000  21.1863000
   5.6770000  45.5213000  21.6543000   4.6420000  44.4283000  21.8143000
   3.4220000  43.6603000  35.5623000   2.7920000  44.3423000  35.7953000
   3.3160000  43.5493000  34.6173000  12.7330000  50.6683000  29.2393000
  13.5550000  50.2663000  28.9573000  12.7290000  50.5653000  30.1903000
   6.4990000  50.2163000  31.3953000   6.5630000  50.6783000  32.2313000
   5.7900000  49.5863000  31.5233000  20.8240000  47.0123000  25.5873000
  20.0700000  46.4433000  25.4323000  20.9580000  46.9783000  26.5343000
   6.2140000  51.8833000  21.2633000   6.0780000  52.7283000  21.6913000
   6.7540000  52.0853000  20.4993000   2.7000000  37.9623000  37.9243000
   2.3070000  37.4093000  38.5993000   3.5170000  38.2733000  38.3153000
   5.6170000  39.3783000  35.5163000   6.3580000  39.9793000  35.4373000
   5.8490000  38.6363000  34.9583000   7.8400000  52.5063000  35.3933000
   7.3970000  51.7193000  35.0753000   8.5020000  52.6933000  34.7273000
   9.9380000  52.7863000  33.4213000   9.9200000  53.6073000  32.9293000
  10.8600000  52.6613000  33.6463000   6.3960000  50.3003000  34.2633000
   6.9290000  49.5393000  34.0333000   5.8670000  50.0083000  35.0063000
   9.5630000  35.4063000  29.7933000   9.2190000  36.2963000  29.7163000
   9.9310000  35.2163000  28.9293000   9.5280000  45.3973000  18.3003000
   9.0120000  46.1683000  18.5393000   9.2560000  44.7243000  18.9233000
   7.1120000  40.2423000  23.3583000   6.2570000  39.8533000  23.1793000
   7.5250000  40.3213000  22.4983000   4.8870000  37.8613000  26.7643000
   5.7520000  37.6653000  26.4053000   4.9540000  37.6323000  27.6913000
  14.5010000  48.1503000  20.2353000  13.7240000  47.8113000  19.7913000
  15.1800000  48.1563000  19.5613000   9.3160000  43.2703000  20.1263000
   9.0110000  43.5843000  20.9773000  10.2690000  43.3483000  20.1683000
   7.7610000  49.4293000  21.7753000   7.2330000  48.6943000  21.4623000
   7.2600000  50.2063000  21.5293000  12.7400000  47.6243000  26.8923000
  12.0830000  48.3143000  26.9803000  13.5440000  48.0133000  27.2353000
   2.4930000  40.0913000  24.1363000   3.0670000  39.8683000  23.4033000
   3.0800000  40.1603000  24.8893000  11.5510000  45.9783000  24.9423000
  12.0640000  46.6113000  25.4443000  12.2010000  45.3783000  24.5763000
   4.7950000  36.9653000  22.8633000   4.1420000  36.6503000  22.2393000
   4.7530000  36.3433000  23.5893000   8.0290000  43.4533000  27.1883000
   7.1110000  43.6753000  27.0303000   8.4450000  43.5283000  26.3293000
   8.8120000  44.8523000  22.3183000   9.5600000  45.3643000  22.0093000
   9.0820000  44.5313000  23.1793000   7.0850000  47.3483000  19.3013000
   6.1760000  47.0643000  19.3983000   7.1150000  47.7683000  18.4413000
  12.3170000  50.9593000  23.0703000  11.8630000  50.1183000  23.1273000
  11.6860000  51.5953000  23.4083000  11.2600000  41.8883000  24.3003000
  10.5230000  41.3763000  24.6313000  11.5130000  41.4483000  23.4883000
  10.7600000  52.7963000  24.0053000  11.0530000  53.3573000  23.2863000
  11.2700000  53.0893000  24.7603000  11.3620000  34.6663000  24.8943000
  11.6670000  33.8053000  24.6073000  12.0870000  35.2573000  24.6943000
   5.6340000  44.9613000  25.4023000   5.6880000  44.0083000  25.3263000
   4.8230000  45.1173000  25.8863000   6.7830000  48.8893000  16.6403000
   6.3450000  48.1733000  16.1803000   7.5240000  49.1173000  16.0783000
   3.5730000  43.5793000  23.1613000   2.7600000  43.8783000  23.5673000
   4.0690000  43.1843000  23.8783000   5.7240000  53.5743000  25.0943000
   5.6810000  53.8013000  24.1653000   6.6400000  53.3413000  25.2433000
   9.1700000  44.0433000  31.9923000   9.5250000  44.2703000  32.8523000
   9.8170000  44.3753000  31.3703000  14.9000000  47.1653000  22.6973000
  14.7620000  47.3553000  21.7703000  14.5440000  47.9273000  23.1543000
   3.0640000  41.1513000  28.7773000   3.7040000  41.0093000  28.0793000
   2.2320000  40.8643000  28.4013000  14.9270000  49.2323000  27.7093000
  15.3610000  49.1403000  28.5573000  15.6400000  49.2083000  27.0713000
   3.8400000  50.4513000  24.8913000   4.6340000  49.9563000  24.6893000
   3.1290000  49.9233000  24.5273000   8.6600000  52.8333000  29.2423000
   8.7130000  53.4023000  30.0103000   7.7910000  53.0033000  28.8773000
  15.7890000  49.2753000  30.2423000  15.9820000  50.1793000  30.4883000
  15.6890000  48.8163000  31.0763000   7.4420000  39.1613000  32.7413000
   6.7950000  39.8603000  32.6473000   8.2120000  39.5943000  33.1083000
  10.8500000  49.4253000  35.8163000  10.6990000  49.1973000  34.8993000
  10.8410000  50.3833000  35.8293000   7.6190000  46.9993000  30.8013000
   8.5480000  47.1503000  30.6273000   7.1980000  47.0873000  29.9453000
   6.4170000  51.0243000  28.5703000   6.2790000  50.6563000  29.4433000
   5.6290000  51.5383000  28.3993000   7.9680000  50.4023000  25.9593000
   7.6330000  50.3623000  26.8553000   7.4680000  49.7363000  25.4863000
  10.9040000  47.7473000  16.2333000  10.2870000  47.0223000  16.1363000
  10.4360000  48.5083000  15.8903000   4.5710000  45.5213000  30.9733000
   5.2810000  44.8803000  30.9323000   4.5280000  45.7723000  31.8963000
  12.5590000  52.4573000  33.8943000  12.5010000  51.7733000  33.2273000
  12.9610000  53.1993000  33.4423000   3.2830000  42.5073000  32.7923000
   2.7470000  42.0563000  33.4453000   2.6950000  42.6423000  32.0493000
  12.5610000  50.4213000  32.1253000  11.6740000  50.0843000  32.2483000
  13.1310000  49.6903000  32.3623000   6.0910000  55.0813000  29.0913000
   6.0180000  55.8873000  29.6033000   5.6490000  55.2813000  28.2663000
   5.8800000  54.3193000  22.6013000   5.0970000  54.8613000  22.6953000
   6.5790000  54.8363000  23.0013000   9.1900000  40.1283000  25.2453000
   9.6870000  39.3753000  24.9253000   8.4180000  40.1653000  24.6793000
  17.0430000  45.8323000  26.8873000  17.0320000  46.7153000  26.5163000
  16.1740000  45.4793000  26.6923000   8.5510000  54.9803000  31.2473000
   9.2640000  55.6153000  31.1743000   8.0600000  55.0773000  30.4313000
  10.2730000  48.8853000  22.8193000   9.3380000  49.0053000  22.6493000
  10.4500000  47.9833000  22.5553000   5.7730000  42.2703000  24.9723000
   5.4030000  41.7173000  25.6603000   6.2690000  41.6663000  24.4193000
  13.6600000  44.7273000  23.3543000  14.1260000  45.5603000  23.2803000
  14.1110000  44.2623000  24.0583000   3.6020000  52.7303000  32.0673000
   4.3030000  53.3633000  32.2203000   3.1320000  53.0713000  31.3073000
  11.7280000  51.0713000  20.3523000  12.0040000  50.9573000  21.2623000
  10.8580000  50.6733000  20.3133000  11.6320000  37.0953000  27.3933000
  10.7180000  37.3253000  27.5613000  12.0610000  37.1793000  28.2443000
  11.4020000  45.2843000  29.8933000  10.7490000  45.5323000  29.2383000
  11.7800000  44.4703000  29.5593000   8.3630000  55.3203000  23.9963000
   8.5450000  54.5023000  24.4583000   9.1860000  55.5373000  23.5583000
   8.6970000  54.2473000  21.2573000   9.2260000  53.7363000  20.6443000
   8.9600000  53.9313000  22.1223000   7.4510000  46.0263000  36.3793000
   6.7750000  45.9253000  37.0503000   8.2740000  45.8703000  36.8433000
   6.1930000  57.3333000  30.6153000   6.7450000  57.4963000  31.3803000
   6.5340000  57.9233000  29.9433000  11.0440000  52.1593000  36.4703000
  11.5880000  52.7723000  35.9753000  10.4630000  52.7173000  36.9873000
   9.3300000  55.2813000  27.6013000   9.2050000  54.4803000  27.0933000
   9.9880000  55.7763000  27.1133000  11.3940000  53.0823000  29.2293000
  10.4470000  52.9623000  29.1573000  11.7420000  52.1943000  29.3123000
   3.7540000  38.9713000  33.0533000   4.2770000  39.2173000  33.8163000
   3.5350000  39.8033000  32.6343000   8.3980000  52.8773000  25.4303000
   8.2510000  51.9493000  25.6113000   9.2240000  52.8993000  24.9463000
   2.2650000  41.5293000  21.2883000   2.6040000  42.0573000  20.5663000
   2.7120000  41.8673000  22.0643000  12.0020000  53.7003000  26.5163000
  12.9260000  53.4943000  26.3793000  11.8330000  53.4523000  27.4253000
   4.9590000  39.9133000  30.7383000   4.6190000  39.1133000  31.1403000
   4.2530000  40.2133000  30.1663000   5.6110000  36.9983000  29.1913000
   6.4330000  36.5243000  29.0693000   5.8540000  37.7773000  29.6913000
   4.2510000  40.0263000  19.4873000   4.9720000  40.4043000  18.9843000
   3.6280000  40.7453000  19.5913000   8.3940000  40.7313000  20.4233000
   8.6110000  41.6133000  20.1223000   7.9140000  40.3403000  19.6943000
   3.1340000  43.6893000  27.0003000   2.9890000  44.0033000  27.8933000
   2.6570000  44.3083000  26.4473000   4.9940000  40.6803000  27.0483000
   4.9800000  39.7843000  26.7113000   5.7110000  40.6873000  27.6823000
   6.8470000  41.1133000  29.0943000   6.5880000  42.0353000  29.0923000
   6.3150000  40.7163000  29.7843000  11.7910000  54.2193000  21.8733000
  11.9650000  53.6533000  21.1203000  12.2840000  55.0193000  21.6903000
   4.3980000  39.5613000  22.3173000   4.5190000  38.6333000  22.5163000
   4.1080000  39.5753000  21.4053000   7.2670000  37.2473000  25.4543000
   7.2890000  37.3113000  24.4993000   7.6840000  36.4073000  25.6483000
  17.6450000  46.9823000  23.4923000  18.0880000  46.2333000  23.0933000
  16.7680000  46.9733000  23.1093000  12.7790000  53.5353000  18.9723000
  13.4740000  54.1563000  19.1913000  13.1210000  52.6853000  19.2473000
  14.6780000  50.9853000  20.5013000  15.2030000  51.3243000  19.7763000
  14.5900000  50.0503000  20.3173000   6.3400000  54.8993000  32.6303000
   6.6490000  54.6533000  33.5023000   7.1370000  55.1033000  32.1423000
   6.3620000  57.0523000  24.8603000   5.9230000  56.5603000  25.5543000
   7.1130000  56.5103000  24.6203000   3.8090000  52.5963000  26.9333000
   3.1870000  51.9333000  26.6333000   4.4800000  52.6223000  26.2503000
   3.8820000  41.0743000  36.5263000   3.9310000  41.9513000  36.1443000
   4.4240000  40.5323000  35.9533000  14.3670000  51.6183000  35.8063000
  13.5770000  51.6013000  35.2673000  14.1310000  52.1573000  36.5613000
  14.4870000  48.4683000  33.1193000  14.5370000  48.3033000  34.0613000
  14.3790000  47.6003000  32.7293000  11.7770000  44.4513000  34.4353000
  12.6780000  44.3113000  34.1443000  11.8520000  44.6163000  35.3753000
   6.1120000  41.8273000  33.2813000   5.2420000  42.1213000  33.0093000
   6.3480000  42.4123000  34.0013000  15.9890000  50.8873000  33.3643000
  15.6970000  51.2503000  34.2003000  15.3760000  50.1743000  33.1853000
  17.1890000  48.4533000  25.8843000  18.0230000  48.8923000  26.0483000
  17.3240000  47.9773000  25.0653000  14.2380000  46.0113000  31.8323000
  14.7130000  46.2033000  31.0233000  13.3140000  46.0673000  31.5863000
   8.8160000  38.0453000  30.7973000   9.3340000  38.7823000  30.4723000
   8.4610000  38.3523000  31.6323000   9.0670000  34.4653000  26.3173000
   9.3470000  33.7983000  26.9433000   9.8520000  34.6583000  25.8053000
  12.9380000  42.8873000  30.0643000  13.8900000  42.9873000  30.0863000
  12.7680000  42.0953000  30.5743000  10.9590000  39.9733000  30.2503000
  10.3640000  40.2533000  29.5553000  10.6740000  40.4623000  31.0223000
  10.0900000  53.9253000  19.0113000  11.0230000  53.8603000  19.2143000
  10.0020000  54.7613000  18.5523000  12.7190000  53.2423000  15.9713000
  12.6400000  52.9083000  16.8653000  13.5400000  53.7343000  15.9703000
  15.4170000  46.1083000  29.1793000  15.3840000  45.1693000  29.3653000
  16.0270000  46.1863000  28.4453000   7.2550000  44.9773000  15.2213000
   8.2010000  44.8483000  15.2903000   6.8760000  44.2393000  15.6983000
  15.5660000  42.8993000  29.2243000  15.0500000  42.1153000  29.0373000
  16.4500000  42.5713000  29.3893000  13.2270000  36.6433000  25.1843000
  13.0300000  36.3353000  26.0683000  13.8370000  37.3693000  25.3143000
  21.2340000  47.1693000  28.3193000  21.9650000  46.9083000  28.8803000
  20.6250000  46.4323000  28.3593000  19.3160000  45.3103000  28.9173000
  18.5890000  45.1763000  28.3083000  18.9010000  45.6183000  29.7223000
   7.1390000  49.0293000  36.6813000   8.0590000  49.2073000  36.8753000
   7.1040000  48.0853000  36.5293000   5.4390000  42.9023000  15.1573000
   4.5320000  42.6063000  15.2333000   5.7170000  42.6053000  14.2903000
   7.0550000  37.4463000  21.3113000   6.2460000  37.1013000  21.6873000
   7.7440000  37.1373000  21.9003000   8.9850000  36.5243000  22.9343000
   9.5380000  36.9433000  23.5933000   9.2220000  35.5983000  22.9763000
   5.0080000  42.5133000  38.7143000   4.9070000  43.4623000  38.6453000
   4.7900000  42.1843000  37.8423000   4.2090000  39.7613000  15.2983000
   5.0710000  40.0873000  15.5583000   4.3940000  38.9743000  14.7853000
  12.3620000  38.6343000  22.4423000  11.7820000  39.2923000  22.0593000
  12.0960000  37.8123000  22.0303000  10.8130000  38.0353000  24.6443000
  11.3130000  38.1463000  23.8353000  11.4560000  37.7313000  25.2843000
   4.8710000  45.9423000  37.5303000   4.3880000  46.7423000  37.7373000
   4.9570000  45.9533000  36.5773000  11.1450000  40.7943000  21.4973000
  10.2570000  41.0793000  21.2793000  11.5600000  40.6333000  20.6503000
  14.4960000  40.8193000  25.2133000  15.2720000  41.3083000  25.4853000
  13.7710000  41.2443000  25.6703000  16.9340000  41.5313000  26.2703000
  17.5280000  41.2913000  25.5593000  17.0060000  40.8123000  26.8973000
  10.2890000  50.5583000  15.5923000  10.9930000  50.7633000  16.2083000
   9.5650000  51.1263000  15.8573000  11.1190000  46.3093000  21.7123000
  11.0630000  46.7663000  20.8733000  11.6720000  45.5493000  21.5343000
  14.9290000  42.0983000  22.5373000  14.6730000  41.6983000  23.3683000
  14.3050000  42.8133000  22.4123000  19.2410000  44.8383000  25.0443000
  18.6810000  44.9073000  25.8173000  18.6350000  44.6623000  24.3243000
  12.1980000  50.9973000  17.6423000  13.0320000  50.5653000  17.4603000
  12.0360000  50.8253000  18.5693000  11.8520000  47.5003000  19.0073000
  11.7970000  47.3343000  18.0663000  11.2270000  48.2083000  19.1643000
   9.1670000  49.8053000  38.3333000  10.0360000  49.9793000  37.9713000
   8.6880000  50.6243000  38.2103000   5.1620000  37.0013000  18.5863000
   5.1500000  37.9453000  18.7433000   6.0540000  36.8183000  18.2923000
   3.3360000  56.9253000  30.0123000   4.2380000  56.9573000  30.3283000
   3.1090000  55.9953000  30.0263000   5.0910000  55.6783000  26.6733000
   4.1410000  55.6783000  26.5593000   5.3940000  54.9313000  26.1563000
   8.9770000  33.5953000  22.8413000   8.2110000  33.0413000  22.9863000
   9.3880000  33.6673000  23.7023000  20.8260000  61.5143000  27.7373000
  21.4640000  61.3943000  27.0343000  20.7080000  62.4623000  27.7963000
  17.6350000  61.4663000  27.6733000  17.2970000  61.3513000  26.7863000
  18.5040000  61.0663000  27.6543000  13.4940000  63.3203000  23.6633000
  12.9300000  63.2293000  22.8953000  13.3790000  62.5003000  24.1433000
  18.1170000  62.6203000  33.6323000  18.1060000  62.2253000  32.7603000
  18.2790000  61.8873000  34.2253000  12.9990000  64.0763000  19.3733000
  13.7730000  63.5293000  19.2353000  13.3520000  64.9403000  19.5853000
  15.7640000  62.7813000  29.1703000  16.3600000  62.5573000  28.4563000
  15.8210000  62.0403000  29.7733000  15.3360000  60.2353000  17.0053000
  15.5890000  59.7133000  16.2443000  14.3990000  60.0723000  17.1083000
  20.3800000  59.2393000  24.8133000  21.1670000  58.8213000  24.4623000
  20.6440000  60.1433000  24.9813000  20.5510000  64.6763000  19.5123000
  19.9160000  64.7503000  20.2243000  20.2210000  65.2653000  18.8333000
  25.7810000  59.1763000  25.7163000  26.5140000  58.6063000  25.9503000
  25.0250000  58.7893000  26.1573000  15.0560000  62.1383000  19.2083000
  14.9390000  61.4633000  19.8763000  15.1660000  61.6513000  18.3913000
  17.3990000  61.5993000  22.9123000  17.0350000  61.0723000  23.6243000
  18.2560000  61.2093000  22.7393000  23.3040000  52.8893000  30.1753000
  22.9720000  53.7583000  29.9523000  22.7080000  52.5723000  30.8553000
  17.0390000  56.6283000  17.9083000  17.2070000  57.4963000  18.2753000
  16.8490000  56.7913000  16.9853000  19.7970000  65.0903000  29.5753000
  19.4970000  65.9923000  29.4673000  19.4520000  64.8233000  30.4273000
  13.2480000  61.5413000  25.6093000  12.3230000  61.4093000  25.8163000
  13.4970000  62.3213000  26.1063000  23.1970000  57.6083000  27.2553000
  22.2880000  57.5403000  26.9613000  23.1450000  58.0853000  28.0833000
  17.0180000  59.0843000  18.8933000  16.8980000  59.5303000  19.7323000
  16.3240000  59.4323000  18.3343000  10.6090000  61.1843000  26.4433000
  10.7380000  61.4383000  27.3573000   9.9290000  61.7773000  26.1243000
  17.2710000  59.0273000  35.1983000  16.4940000  59.5863000  35.1893000
  17.9100000  59.5133000  35.7203000  25.0630000  55.8103000  29.0333000
  24.4200000  56.1033000  28.3873000  24.5580000  55.6953000  29.8383000
  22.7170000  59.5563000  19.7213000  23.6290000  59.7893000  19.5463000
  22.2080000  60.1403000  19.1593000  15.5250000  61.8363000  34.7603000
  16.2670000  62.3743000  34.4843000  14.8190000  62.4623000  34.9173000
  21.0010000  63.9783000  33.3573000  21.4090000  63.5373000  32.6133000
  20.2790000  63.4043000  33.6113000  17.3540000  58.9163000  30.7313000
  18.2000000  59.3403000  30.8743000  17.2940000  58.2593000  31.4243000
  21.3240000  64.5393000  27.1123000  20.6950000  64.7033000  26.4103000
  20.9360000  64.9533000  27.8843000  25.2030000  65.4743000  24.4673000
  24.5180000  65.8543000  23.9173000  25.2870000  66.0843000  25.2003000
  20.5040000  56.5763000  32.3893000  20.2600000  57.3303000  31.8523000
  20.7800000  56.9553000  33.2233000  22.4580000  63.1203000  31.0663000
  22.6700000  63.7633000  30.3903000  22.4110000  62.2863000  30.5993000
  20.0600000  55.7323000  27.9703000  19.1990000  56.0303000  28.2623000
  20.0870000  55.9493000  27.0383000  16.8770000  64.2763000  24.3773000
  17.3400000  64.5553000  23.5883000  16.6120000  63.3743000  24.1953000
  13.7690000  63.8233000  27.3153000  14.3390000  64.2523000  26.6773000
  14.3600000  63.5413000  28.0143000  15.8140000  60.3983000  21.1863000
  16.5160000  60.8503000  21.6543000  15.4820000  59.7573000  21.8143000
  14.2620000  58.9893000  35.5623000  13.6310000  59.6713000  35.7953000
  14.1550000  58.8783000  34.6173000   9.5560000  58.6573000  26.4883000
   8.7660000  58.9123000  26.0123000  10.0470000  59.4723000  26.5933000
  23.5720000  65.9973000  29.2393000  24.3940000  65.5953000  28.9573000
  23.5690000  65.8943000  30.1903000  11.5080000  59.0213000  23.4463000
  10.7110000  59.1333000  23.9653000  11.2800000  59.3603000  22.5813000
  17.3380000  65.5463000  31.3953000  17.4030000  66.0083000  32.2313000
  16.6290000  64.9153000  31.5233000   7.8400000  58.9103000  28.9203000
   8.0910000  59.7943000  29.1853000   8.3760000  58.7303000  28.1473000
  31.6630000  62.3413000  25.5873000  30.9090000  61.7723000  25.4323000
  31.7980000  62.3073000  26.5343000  13.5400000  53.2923000  37.9243000
  13.1460000  52.7383000  38.5993000  14.3560000  53.6033000  38.3153000
  16.4560000  54.7073000  35.5163000  17.1970000  55.3083000  35.4373000
  16.6880000  53.9653000  34.9583000  11.6010000  59.8933000  33.7943000
  11.4860000  58.9923000  34.0953000  10.7450000  60.1393000  33.4423000
  17.2350000  65.6293000  34.2633000  17.7680000  64.8683000  34.0333000
  16.7070000  65.3373000  35.0063000  20.4020000  50.7353000  29.7933000
  20.0590000  51.6263000  29.7163000  20.7700000  50.5463000  28.9293000
   8.4710000  63.0593000  22.6113000   9.3080000  63.4693000  22.3953000
   8.6490000  62.1193000  22.5813000  20.3670000  60.7263000  18.3003000
  19.8520000  61.4973000  18.5393000  20.0950000  60.0533000  18.9233000
  17.9520000  55.5713000  23.3583000  17.0960000  55.1823000  23.1793000
  18.3650000  55.6513000  22.4983000  19.4820000  53.1063000  27.7573000
  18.9780000  53.0693000  26.9443000  19.7750000  54.0153000  27.8173000
  15.7260000  53.1903000  26.7643000  16.5910000  52.9943000  26.4053000
  15.7940000  52.9613000  27.6913000  25.3410000  63.4803000  20.2353000
  24.5640000  63.1413000  19.7913000  26.0200000  63.4853000  19.5613000
  20.1560000  58.5993000  20.1263000  19.8510000  58.9143000  20.9773000
  21.1090000  58.6773000  20.1683000  18.6000000  64.7583000  21.7753000
  18.0730000  64.0233000  21.4623000  18.0990000  65.5363000  21.5293000
  23.5800000  62.9533000  26.8923000  22.9220000  63.6433000  26.9803000
  24.3840000  63.3433000  27.2353000  13.3320000  55.4203000  24.1363000
  13.9070000  55.1983000  23.4033000  13.9190000  55.4893000  24.8893000
  22.3900000  61.3073000  24.9423000  22.9030000  61.9403000  25.4443000
  23.0400000  60.7083000  24.5763000  13.6590000  57.4503000  18.1553000
  12.8230000  57.7883000  18.4763000  13.5200000  57.3153000  17.2183000
  15.6350000  52.2943000  22.8633000  14.9810000  51.9793000  22.2393000
  15.5930000  51.6723000  23.5893000  18.8680000  58.7823000  27.1883000
  17.9510000  59.0043000  27.0303000  19.2840000  58.8573000  26.3293000
  19.6520000  60.1813000  22.3183000  20.3990000  60.6943000  22.0093000
  19.9210000  59.8603000  23.1793000  17.9250000  62.6773000  19.3013000
  17.0160000  62.3933000  19.3983000  17.9540000  63.0973000  18.4413000
  23.1560000  66.2883000  23.0703000  22.7030000  65.4473000  23.1273000
  22.5260000  66.9243000  23.4083000  22.1000000  57.2173000  24.3003000
  21.3620000  56.7053000  24.6313000  22.3520000  56.7773000  23.4883000
  22.2010000  49.9953000  24.8943000  22.5070000  49.1353000  24.6073000
  22.9260000  50.5873000  24.6943000   8.4930000  60.3983000  23.2823000
   8.2960000  59.8053000  22.5583000   7.9380000  60.0933000  24.0003000
  16.4730000  60.2903000  25.4023000  16.5280000  59.3383000  25.3263000
  15.6620000  60.4463000  25.8863000  17.6220000  64.2183000  16.6403000
  17.1840000  63.5023000  16.1803000  18.3630000  64.4463000  16.0783000
  14.4120000  58.9083000  23.1613000  13.5990000  59.2073000  23.5673000
  14.9080000  58.5133000  23.8783000  20.0100000  59.3723000  31.9923000
  20.3650000  59.5993000  32.8523000  20.6570000  59.7043000  31.3703000
  25.7390000  62.4943000  22.6973000  25.6010000  62.6843000  21.7703000
  25.3830000  63.2563000  23.1543000  13.9040000  56.4803000  28.7773000
  14.5440000  56.3393000  28.0793000  13.0710000  56.1933000  28.4013000
  25.7660000  64.5623000  27.7093000  26.2000000  64.4693000  28.5573000
  26.4800000  64.5373000  27.0713000  10.9880000  59.9243000  20.9673000
  10.0580000  59.8633000  21.1843000  11.0840000  59.4023000  20.1703000
  10.9070000  56.4503000  23.5543000  11.1670000  57.3643000  23.4453000
  11.7280000  55.9823000  23.7043000  12.3790000  57.8643000  30.7243000
  13.0510000  57.6553000  30.0763000  11.5520000  57.6663000  30.2853000
  26.6280000  64.6043000  30.2423000  26.8220000  65.5093000  30.4883000
  26.5280000  64.1453000  31.0763000  18.2820000  54.4903000  32.7413000
  17.6340000  55.1893000  32.6473000  19.0520000  54.9233000  33.1083000
  21.6890000  64.7553000  35.8163000  21.5380000  64.5263000  34.8993000
  21.6800000  65.7123000  35.8293000  18.4580000  62.3283000  30.8013000
  19.3870000  62.4793000  30.6273000  18.0370000  62.4163000  29.9453000
  18.8070000  65.7313000  25.9593000  18.4720000  65.6913000  26.8553000
  18.3080000  65.0663000  25.4863000  12.7820000  61.1383000  31.4853000
  12.6440000  60.4063000  32.0863000  13.6920000  61.0493000  31.2033000
  21.7430000  63.0773000  16.2333000  21.1260000  62.3513000  16.1363000
  21.2750000  63.8383000  15.8903000  15.4100000  60.8503000  30.9733000
  16.1200000  60.2093000  30.9323000  15.3670000  61.1013000  31.8963000
  23.3990000  67.7873000  33.8943000  23.3400000  67.1023000  33.2273000
  23.8010000  68.5283000  33.4423000  14.1230000  57.8363000  32.7923000
  13.5870000  57.3853000  33.4453000  13.5350000  57.9713000  32.0493000
  23.4000000  65.7513000  32.1253000  22.5130000  65.4133000  32.2483000
  23.9700000  65.0193000  32.3623000   9.8570000  56.9723000  29.8783000
   9.7730000  56.3653000  29.1433000   9.0350000  57.4633000  29.8793000
  20.0290000  55.4573000  25.2453000  20.5260000  54.7043000  24.9253000
  19.2580000  55.4943000  24.6793000  27.8820000  61.1613000  26.8873000
  27.8710000  62.0443000  26.5163000  27.0140000  60.8083000  26.6923000
  21.1120000  64.2143000  22.8193000  20.1780000  64.3353000  22.6493000
  21.2900000  63.3123000  22.5553000  16.6130000  57.5993000  24.9723000
  16.2420000  57.0463000  25.6603000  17.1090000  56.9953000  24.4193000
  24.4990000  60.0563000  23.3543000  24.9650000  60.8893000  23.2803000
  24.9500000  59.5913000  24.0583000  22.5670000  66.4013000  20.3523000
  22.8430000  66.2863000  21.2623000  21.6970000  66.0023000  20.3133000
  22.4710000  52.4243000  27.3933000  21.5570000  52.6553000  27.5613000
  22.9000000  52.5083000  28.2443000  22.2420000  60.6133000  29.8933000
  21.5890000  60.8613000  29.2383000  22.6200000  59.8003000  29.5593000
  18.2900000  61.3553000  36.3793000  17.6150000  61.2553000  37.0503000
  19.1130000  61.1993000  36.8433000   4.6300000  60.1633000  27.7213000
   4.6690000  59.6293000  28.5153000   4.1240000  59.6363000  27.1023000
  12.0090000  55.0093000  31.2173000  12.0730000  55.8713000  30.8053000
  11.9460000  54.3973000  30.4843000  11.4840000  57.0823000  34.8653000
  12.1120000  56.6993000  35.4783000  10.6270000  56.8633000  35.2303000
  11.7900000  56.9653000  26.7793000  11.0690000  57.5793000  26.6403000
  12.5800000  57.5013000  26.7013000  14.5930000  54.3003000  33.0533000
  15.1160000  54.5473000  33.8163000  14.3740000  55.1323000  32.6343000
   9.9900000  56.5713000  20.9203000   9.6610000  55.6913000  20.7383000
  10.3440000  56.5163000  21.8083000  13.1040000  56.8583000  21.2883000
  13.4440000  57.3873000  20.5663000  13.5510000  57.1963000  22.0643000
  15.7980000  55.2423000  30.7383000  15.4580000  54.4433000  31.1403000
  15.0920000  55.5423000  30.1663000  16.4500000  52.3273000  29.1913000
  17.2730000  51.8533000  29.0693000  16.6940000  53.1063000  29.6913000
  15.0910000  55.3563000  19.4873000  15.8120000  55.7343000  18.9843000
  14.4670000  56.0743000  19.5913000  19.2340000  56.0603000  20.4233000
  19.4500000  56.9433000  20.1223000  18.7530000  55.6693000  19.6943000
  13.9740000  59.0193000  27.0003000  13.8280000  59.3333000  27.8933000
  13.4960000  59.6373000  26.4473000  15.8330000  56.0093000  27.0483000
  15.8200000  55.1133000  26.7113000  16.5510000  56.0163000  27.6823000
  17.6860000  56.4433000  29.0943000  17.4280000  57.3643000  29.0923000
  17.1550000  56.0463000  29.7843000   8.4480000  61.5593000  29.9393000
   7.9040000  62.3353000  30.0713000   9.3260000  61.9063000  29.7813000
  15.2370000  54.8903000  22.3173000  15.3590000  53.9623000  22.5163000
  14.9470000  54.9043000  21.4053000  18.1060000  52.5763000  25.4543000
  18.1280000  52.6403000  24.4993000  18.5230000  51.7363000  25.6483000
  28.4850000  62.3113000  23.4923000  28.9280000  61.5623000  23.0933000
  27.6070000  62.3023000  23.1093000   9.2350000  60.6863000  32.8323000
   8.4930000  60.8343000  33.4183000   8.9140000  60.9473000  31.9693000
  25.5170000  66.3143000  20.5013000  26.0420000  66.6533000  19.7763000
  25.4300000  65.3793000  20.3173000  14.7210000  56.4043000  36.5263000
  14.7700000  57.2803000  36.1443000  15.2630000  55.8613000  35.9533000
  25.2070000  66.9483000  35.8063000  24.4160000  66.9303000  35.2673000
  24.9700000  67.4863000  36.5613000  25.3260000  63.7973000  33.1193000
  25.3760000  63.6323000  34.0613000  25.2180000  62.9303000  32.7293000
  22.6170000  59.7803000  34.4353000  23.5180000  59.6413000  34.1443000
  22.6920000  59.9453000  35.3753000  16.9510000  57.1573000  33.2813000
  16.0810000  57.4503000  33.0093000  17.1870000  57.7413000  34.0013000
  26.8280000  66.2173000  33.3643000  26.5370000  66.5803000  34.2003000
  26.2160000  65.5033000  33.1853000  28.0280000  63.7823000  25.8843000
  28.8630000  64.2213000  26.0483000  28.1640000  63.3063000  25.0653000
  25.0770000  61.3403000  31.8323000  25.5520000  61.5333000  31.0233000
  24.1540000  61.3963000  31.5863000  11.9650000  62.5023000  21.4153000
  11.7200000  61.5983000  21.6133000  12.1350000  62.5043000  20.4733000
  19.6550000  53.3753000  30.7973000  20.1730000  54.1113000  30.4723000
  19.3010000  53.6813000  31.6323000  11.2350000  58.2353000  18.9133000
  10.5420000  58.3103000  18.2573000  10.9900000  57.4713000  19.4353000
  19.9060000  49.7953000  26.3173000  20.1860000  49.1273000  26.9433000
  20.6910000  49.9883000  25.8053000  23.7770000  58.2163000  30.0643000
  24.7290000  58.3163000  30.0863000  23.6080000  57.4243000  30.5743000
  21.7990000  55.3023000  30.2503000  21.2040000  55.5823000  29.5553000
  21.5140000  55.7913000  31.0223000  23.5580000  68.5713000  15.9713000
  23.4800000  68.2373000  16.8653000  24.3790000  69.0633000  15.9703000
  26.2560000  61.4373000  29.1793000  26.2240000  60.4993000  29.3653000
  26.8660000  61.5153000  28.4453000  18.0940000  60.3073000  15.2213000
  19.0400000  60.1773000  15.2903000  17.7160000  59.5683000  15.6983000
  26.4050000  58.2283000  29.2243000  25.8890000  57.4443000  29.0373000
  27.2890000  57.9003000  29.3893000  24.0670000  51.9723000  25.1843000
  23.8690000  51.6643000  26.0683000  24.6760000  52.6983000  25.3143000
  32.0740000  62.4993000  28.3193000  32.8040000  62.2373000  28.8803000
  31.4640000  61.7623000  28.3593000  30.1550000  60.6393000  28.9173000
  29.4290000  60.5053000  28.3083000  29.7400000  60.9473000  29.7223000
  17.9780000  64.3583000  36.6813000  18.8990000  64.5363000  36.8753000
  17.9430000  63.4143000  36.5293000  16.2790000  58.2323000  15.1573000
  15.3720000  57.9353000  15.2333000  16.5560000  57.9353000  14.2903000
  10.9740000  62.2693000  29.3243000  11.1930000  63.2003000  29.3423000
  11.3870000  61.9093000  30.1093000  17.8950000  52.7753000  21.3113000
  17.0850000  52.4303000  21.6873000  18.5830000  52.4663000  21.9003000
  19.8240000  51.8533000  22.9343000  20.3770000  52.2733000  23.5933000
  20.0610000  50.9273000  22.9763000  15.8470000  57.8423000  38.7143000
  15.7470000  58.7913000  38.6453000  15.6290000  57.5143000  37.8423000
  15.0490000  55.0903000  15.2983000  15.9100000  55.4163000  15.5583000
  15.2340000  54.3033000  14.7853000  23.2020000  53.9633000  22.4423000
  22.6220000  54.6223000  22.0593000  22.9350000  53.1413000  22.0303000
  21.6520000  53.3643000  24.6443000  22.1520000  53.4753000  23.8353000
  22.2960000  53.0603000  25.2843000  15.7100000  61.2723000  37.5303000
  15.2270000  62.0723000  37.7373000  15.7960000  61.2823000  36.5773000
  12.2280000  63.7323000  32.1343000  13.0470000  64.2273000  32.1583000
  12.5010000  62.8153000  32.1063000  21.9840000  56.1233000  21.4973000
  21.0970000  56.4083000  21.2793000  22.4000000  55.9633000  20.6503000
  25.3360000  56.1483000  25.2133000  26.1120000  56.6373000  25.4853000
  24.6110000  56.5743000  25.6703000  27.7730000  56.8613000  26.2703000
  28.3670000  56.6203000  25.5593000  27.8460000  56.1413000  26.8973000
  21.1290000  65.8883000  15.5923000  21.8320000  66.0933000  16.2083000
  20.4050000  66.4553000  15.8573000  21.9580000  61.6393000  21.7123000
  21.9020000  62.0963000  20.8733000  22.5110000  60.8783000  21.5343000
  25.7690000  57.4283000  22.5373000  25.5130000  57.0273000  23.3683000
  25.1440000  58.1423000  22.4123000  30.0800000  60.1673000  25.0443000
  29.5200000  60.2373000  25.8173000  29.4740000  59.9913000  24.3243000
  23.0370000  66.3263000  17.6423000  23.8720000  65.8943000  17.4603000
  22.8760000  66.1543000  18.5693000  22.6920000  62.8293000  19.0073000
  22.6370000  62.6643000  18.0663000  22.0660000  63.5373000  19.1643000
   7.4810000  58.0663000  32.8343000   8.1270000  57.5563000  33.3223000
   7.2730000  58.8033000  33.4083000  20.0060000  65.1343000  38.3333000
  20.8760000  65.3083000  37.9713000  19.5270000  65.9533000  38.2103000
  16.0010000  52.3303000  18.5863000  15.9890000  53.2743000  18.7433000
  16.8940000  52.1473000  18.2923000  19.8170000  48.9243000  22.8413000
  19.0500000  48.3703000  22.9863000  20.2280000  48.9963000  23.7023000
  11.8210000  55.2133000  36.9313000  12.6840000  54.8563000  37.1413000
  11.2470000  54.8743000  37.6193000  34.1430000  68.2183000  30.1753000
  33.8120000  69.0873000  29.9523000  33.5480000  67.9013000  30.8553000
  35.9020000  71.1393000  29.0333000  35.2600000  71.4323000  28.3873000
  35.3980000  71.0243000  29.8383000  24.3790000  68.6213000  37.9243000
  23.9860000  68.0673000  38.5993000  25.1960000  68.9323000  38.3153000
  31.2420000  66.0653000  29.7933000  30.8980000  66.9553000  29.7163000
  31.6090000  65.8753000  28.9293000  30.3210000  68.4353000  27.7573000
  29.8180000  68.3983000  26.9443000  30.6140000  69.3443000  27.8173000
  26.5650000  68.5193000  26.7643000  27.4310000  68.3233000  26.4053000
  26.6330000  68.2903000  27.6913000  26.4740000  67.6233000  22.8633000
  25.8200000  67.3083000  22.2393000  26.4320000  67.0013000  23.5893000
  33.0400000  65.3243000  24.8943000  33.3460000  64.4643000  24.6073000
  33.7660000  65.9163000  24.6943000  29.1210000  69.8193000  32.7413000
  28.4740000  70.5183000  32.6473000  29.8910000  70.2533000  33.1083000
  30.8690000  70.7863000  25.2453000  31.3650000  70.0333000  24.9253000
  30.0970000  70.8233000  24.6793000  33.3100000  67.7533000  27.3933000
  32.3970000  67.9843000  27.5613000  33.7400000  67.8373000  28.2443000
  27.2890000  67.6563000  29.1913000  28.1120000  67.1823000  29.0693000
  27.5330000  68.4353000  29.6913000  28.9460000  67.9053000  25.4543000
  28.9680000  67.9693000  24.4993000  29.3620000  67.0653000  25.6483000
  30.4940000  68.7043000  30.7973000  31.0130000  69.4403000  30.4723000
  30.1400000  69.0103000  31.6323000  30.7460000  65.1243000  26.3173000
  31.0260000  64.4563000  26.9433000  31.5310000  65.3173000  25.8053000
  32.6380000  70.6313000  30.2503000  32.0430000  70.9123000  29.5553000
  32.3530000  71.1213000  31.0223000  37.2450000  73.5573000  29.2243000
  36.7290000  72.7733000  29.0373000  38.1290000  73.2293000  29.3893000
  34.9060000  67.3013000  25.1843000  34.7080000  66.9933000  26.0683000
  35.5160000  68.0283000  25.3143000  28.7340000  68.1053000  21.3113000
  27.9240000  67.7593000  21.6873000  29.4230000  67.7953000  21.9003000
  30.6630000  67.1823000  22.9343000  31.2160000  67.6023000  23.5933000
  30.9000000  66.2563000  22.9763000  34.0410000  69.2923000  22.4423000
  33.4610000  69.9513000  22.0593000  33.7750000  68.4703000  22.0303000
  32.4920000  68.6933000  24.6443000  32.9910000  68.8053000  23.8353000
  33.1350000  68.3893000  25.2843000  32.8240000  71.4523000  21.4973000
  31.9360000  71.7373000  21.2793000  33.2390000  71.2923000  20.6503000
  36.1750000  71.4773000  25.2133000  36.9510000  71.9673000  25.4853000
  35.4500000  71.9033000  25.6703000  38.6120000  72.1903000  26.2703000
  39.2070000  71.9493000  25.5593000  38.6850000  71.4713000  26.8973000
  26.8410000  67.6593000  18.5863000  26.8290000  68.6033000  18.7433000
  27.7330000  67.4763000  18.2923000  30.6560000  64.2533000  22.8413000
  29.8890000  63.6993000  22.9863000  31.0670000  64.3263000  23.7023000
   4.6860000  23.5133000  21.4853000   5.4270000  24.0513000  21.2083000
   3.9800000  24.1393000  21.6423000  10.1620000  25.6553000  20.0823000
  10.5700000  25.2143000  19.3373000   9.4390000  25.0813000  20.3353000
  12.7330000  27.6743000  15.9633000  13.5550000  27.2723000  15.6813000
  12.7290000  27.5713000  16.9153000   7.8400000  29.5123000  22.1173000
   7.3970000  28.7253000  21.7993000   8.5020000  29.7003000  21.4523000
   9.9380000  29.7923000  20.1453000   9.9200000  30.6133000  19.6533000
  10.8600000  29.6673000  20.3703000   6.3960000  27.3063000  20.9883000
   6.9290000  26.5453000  20.7583000   5.8670000  27.0143000  21.7303000
  10.8500000  26.4323000  22.5403000  10.6990000  26.2033000  21.6233000
  10.8410000  27.3893000  22.5543000  12.5590000  29.4643000  20.6183000
  12.5010000  28.7793000  19.9513000  12.9610000  30.2053000  20.1663000
  12.5610000  27.4283000  18.8493000  11.6740000  27.0903000  18.9723000
  13.1310000  26.6963000  19.0863000   8.5510000  31.9863000  17.9713000
   9.2640000  32.6213000  17.8993000   8.0600000  32.0833000  17.1553000
   7.4510000  23.0323000  23.1043000   6.7750000  22.9323000  23.7743000
   8.2740000  22.8763000  23.5673000   6.1930000  34.3393000  17.3403000
   6.7450000  34.5023000  18.1043000   6.5340000  34.9293000  16.6683000
  11.0440000  29.1653000  23.1943000  11.5880000  29.7783000  22.7003000
  10.4630000  29.7233000  23.7113000  11.3940000  30.0883000  15.9543000
  10.4470000  29.9693000  15.8823000  11.7420000  29.2003000  16.0373000
   6.3400000  31.9053000  19.3543000   6.6490000  31.6603000  20.2273000
   7.1370000  32.1093000  18.8663000  14.3670000  28.6253000  22.5313000
  13.5770000  28.6073000  21.9913000  14.1310000  29.1633000  23.2853000
  14.4870000  25.4743000  19.8443000  14.5370000  25.3093000  20.7853000
  14.3790000  24.6073000  19.4543000  11.7770000  21.4573000  21.1603000
  12.6780000  21.3183000  20.8683000  11.8520000  21.6223000  22.1003000
  15.9890000  27.8943000  20.0883000  15.6970000  28.2573000  20.9243000
  15.3760000  27.1803000  19.9093000  21.2340000  24.1763000  15.0443000
  21.9650000  23.9143000  15.6053000  20.6250000  23.4393000  15.0843000
   7.1390000  26.0353000  23.4063000   8.0590000  26.2133000  23.6003000
   7.1040000  25.0913000  23.2543000   5.0080000  19.5193000  25.4383000
   4.9070000  20.4683000  25.3703000   4.7900000  19.1913000  24.5663000
   4.8710000  22.9493000  24.2553000   4.3880000  23.7493000  24.4613000
   4.9570000  22.9593000  23.3023000   9.1670000  26.8113000  25.0573000
  10.0360000  26.9853000  24.6963000   8.6880000  27.6303000  24.9353000
   3.3360000  33.9313000  16.7363000   4.2380000  33.9633000  17.0533000
   3.1090000  33.0013000  16.7513000  20.8260000  38.5203000  14.4623000
  21.4640000  38.4013000  13.7583000  20.7080000  39.4683000  14.5213000
  17.6350000  38.4733000  14.3983000  17.2970000  38.3573000  13.5103000
  18.5040000  38.0723000  14.3783000  13.4940000  40.3263000  10.3883000
  12.9300000  40.2353000   9.6193000  13.3790000  39.5063000  10.8683000
  18.1170000  39.6263000  20.3573000  18.1060000  39.2313000  19.4853000
  18.2790000  38.8933000  20.9503000  11.0400000  41.8213000  13.2263000
  11.8330000  41.4803000  12.8113000  11.2800000  41.9313000  14.1463000
  19.0740000  43.9933000   5.6993000  18.4230000  44.5793000   5.3133000
  19.8680000  44.5243000   5.7593000  14.8380000  42.4103000  19.3053000
  14.5470000  43.3143000  19.1893000  15.4740000  42.4513000  20.0193000
  15.7640000  39.7883000  15.8953000  16.3600000  39.5633000  15.1803000
  15.8210000  39.0463000  16.4973000  20.3800000  36.2453000  11.5373000
  21.1670000  35.8273000  11.1863000  20.6440000  37.1503000  11.7053000
  20.5510000  41.6823000   6.2363000  19.9160000  41.7563000   6.9483000
  20.2210000  42.2723000   5.5583000  25.7810000  36.1833000  12.4403000
  26.5140000  35.6123000  12.6743000  25.0250000  35.7953000  12.8813000
  17.3990000  38.6053000   9.6373000  17.0350000  38.0783000  10.3483000
  18.2560000  38.2153000   9.4633000  23.3040000  29.8953000  16.9003000
  22.9720000  30.7643000  16.6763000  22.7080000  29.5783000  17.5793000
  19.7970000  42.0963000  16.3003000  19.4970000  42.9983000  16.1913000
  19.4520000  41.8293000  17.1523000  13.2480000  38.5473000  12.3333000
  12.3230000  38.4153000  12.5413000  13.4970000  39.3273000  12.8303000
  23.1970000  34.6143000  13.9793000  22.2880000  34.5463000  13.6853000
  23.1450000  35.0913000  14.8073000  10.6090000  38.1913000  13.1683000
  10.7380000  38.4443000  14.0823000   9.9290000  38.7833000  12.8483000
  17.2710000  36.0333000  21.9233000  16.4940000  36.5933000  21.9133000
  17.9100000  36.5193000  22.4443000  25.0630000  32.8163000  15.7573000
  24.4200000  33.1093000  15.1113000  24.5580000  32.7013000  16.5623000
  15.5250000  38.8423000  21.4853000  16.2670000  39.3803000  21.2083000
  14.8190000  39.4683000  21.6423000  21.0010000  40.9853000  20.0823000
  21.4090000  40.5433000  19.3373000  20.2790000  40.4103000  20.3353000
  17.3540000  35.9223000  17.4553000  18.2000000  36.3463000  17.5993000
  17.2940000  35.2653000  18.1493000  21.3240000  41.5453000  13.8373000
  20.6950000  41.7093000  13.1353000  20.9360000  41.9593000  14.6083000
  25.2030000  42.4803000  11.1913000  24.5180000  42.8603000  10.6413000
  25.2870000  43.0903000  11.9253000  20.5040000  33.5823000  19.1133000
  20.2600000  34.3373000  18.5773000  20.7800000  33.9613000  19.9483000
  22.4580000  40.1263000  17.7913000  22.6700000  40.7693000  17.1143000
  22.4110000  39.2923000  17.3233000  20.0600000  32.7383000  14.6953000
  19.1990000  33.0363000  14.9863000  20.0870000  32.9553000  13.7633000
  16.8770000  41.2823000  11.1023000  17.3400000  41.5613000  10.3123000
  16.6120000  40.3813000  10.9193000  13.7690000  40.8293000  14.0403000
  14.3390000  41.2583000  13.4023000  14.3600000  40.5483000  14.7383000
  14.2620000  35.9963000  22.2863000  13.6310000  36.6773000  22.5203000
  14.1550000  35.8843000  21.3413000   9.5560000  35.6633000  13.2133000
   8.7660000  35.9193000  12.7373000  10.0470000  36.4783000  13.3183000
  23.5720000  43.0033000  15.9633000  24.3940000  42.6013000  15.6813000
  23.5690000  42.9003000  16.9153000  17.3380000  42.5523000  18.1193000
  17.4030000  43.0143000  18.9553000  16.6290000  41.9223000  18.2483000
   7.8400000  35.9163000  15.6443000   8.0910000  36.8013000  15.9103000
   8.3760000  35.7363000  14.8723000  31.6630000  39.3473000  12.3123000
  30.9090000  38.7783000  12.1563000  31.7980000  39.3143000  13.2593000
  17.0530000  44.2193000   7.9873000  16.9170000  45.0643000   8.4163000
  17.5940000  44.4213000   7.2243000  13.5400000  30.2983000  24.6493000
  13.1460000  29.7443000  25.3233000  14.3560000  30.6093000  25.0393000
  10.5060000  41.7363000   8.5603000  11.0180000  42.5303000   8.7113000
  11.1580000  41.0393000   8.4933000  12.3150000  44.8533000  10.6423000
  12.4920000  45.7753000  10.4543000  13.1110000  44.5393000  11.0723000
  16.4560000  31.7143000  22.2413000  17.1970000  32.3143000  22.1613000
  16.6880000  30.9713000  21.6823000  11.6010000  36.8993000  20.5183000
  11.4860000  35.9983000  20.8193000  10.7450000  37.1463000  20.1673000
  18.6800000  44.8413000  22.1173000  18.2360000  44.0553000  21.7993000
  19.3410000  45.0293000  21.4523000  13.4380000  46.3713000  16.6433000
  13.9890000  46.2423000  15.8713000  12.6000000  46.6703000  16.2933000
  20.7780000  45.1213000  20.1453000  20.7600000  45.9423000  19.6533000
  21.7000000  44.9973000  20.3703000  17.2350000  42.6363000  20.9883000
  17.7680000  41.8753000  20.7583000  16.7070000  42.3433000  21.7303000
  20.4020000  27.7423000  16.5173000  20.0590000  28.6323000  16.4413000
  20.7700000  27.5523000  15.6543000  19.4820000  30.1123000  14.4823000
  18.9780000  30.0753000  13.6693000  19.7750000  31.0213000  14.5423000
  25.3410000  40.4863000   6.9603000  24.5640000  40.1473000   6.5153000
  26.0200000  40.4913000   6.2853000  18.6000000  41.7643000   8.5003000
  18.0730000  41.0303000   8.1873000  18.0990000  42.5423000   8.2543000
  23.5800000  39.9593000  13.6163000  22.9220000  40.6493000  13.7043000
  24.3840000  40.3493000  13.9603000  22.3900000  38.3143000  11.6673000
  22.9030000  38.9473000  12.1693000  23.0400000  37.7143000  11.3013000
  18.8680000  35.7893000  13.9133000  17.9510000  36.0103000  13.7553000
  19.2840000  35.8633000  13.0543000  19.6520000  37.1883000   9.0433000
  20.3990000  37.7003000   8.7333000  19.9210000  36.8663000   9.9033000
  23.1560000  43.2943000   9.7953000  22.7030000  42.4533000   9.8513000
  22.5260000  43.9303000  10.1323000  22.1000000  34.2233000  11.0253000
  21.3620000  33.7113000  11.3563000  22.3520000  33.7833000  10.2133000
  21.6000000  45.1323000  10.7303000  21.8920000  45.6923000  10.0113000
  22.1100000  45.4253000  11.4853000  16.4730000  37.2963000  12.1263000
  16.5280000  36.3443000  12.0513000  15.6620000  37.4523000  12.6113000
  16.5630000  45.9103000  11.8193000  16.5210000  46.1363000  10.8903000
  17.4790000  45.6763000  11.9683000  20.0100000  36.3783000  18.7173000
  20.3650000  36.6053000  19.5763000  20.6570000  36.7103000  18.0953000
  25.7390000  39.5003000   9.4223000  25.6010000  39.6903000   8.4943000
  25.3830000  40.2623000   9.8793000  13.9040000  33.4863000  15.5023000
  14.5440000  33.3453000  14.8043000  13.0710000  33.1993000  15.1253000
  25.7660000  41.5683000  14.4333000  26.2000000  41.4753000  15.2813000
  26.4800000  41.5443000  13.7953000  14.6800000  42.7863000  11.6153000
  15.4740000  42.2913000  11.4133000  13.9690000  42.2583000  11.2523000
  19.4990000  45.1683000  15.9663000  19.5530000  45.7373000  16.7343000
  18.6310000  45.3383000  15.6023000  12.3790000  34.8703000  17.4493000
  13.0510000  34.6623000  16.8003000  11.5520000  34.6723000  17.0093000
  26.6280000  41.6103000  16.9663000  26.8220000  42.5153000  17.2123000
  26.5280000  41.1513000  17.8003000  18.2820000  31.4963000  19.4653000
  17.6340000  32.1953000  19.3723000  19.0520000  31.9303000  19.8333000
  21.6890000  41.7613000  22.5403000  21.5380000  41.5323000  21.6233000
  21.6800000  42.7183000  22.5543000  18.4580000  39.3343000  17.5253000
  19.3870000  39.4853000  17.3523000  18.0370000  39.4223000  16.6703000
  17.2570000  43.3593000  15.2953000  17.1180000  42.9913000  16.1673000
  16.4680000  43.8743000  15.1233000  18.8070000  42.7373000  12.6843000
  18.4720000  42.6973000  13.5803000  18.3080000  42.0723000  12.2113000
  12.7820000  38.1443000  18.2093000  12.6440000  37.4123000  18.8103000
  13.6920000  38.0553000  17.9273000  15.4100000  37.8563000  17.6973000
  16.1200000  37.2153000  17.6563000  15.3670000  38.1073000  18.6203000
  23.3990000  44.7933000  20.6183000  23.3400000  44.1093000  19.9513000
  23.8010000  45.5353000  20.1663000  14.1230000  34.8433000  19.5173000
  13.5870000  34.3923000  20.1693000  13.5350000  34.9773000  18.7743000
  12.4180000  51.6093000  13.4113000  12.6570000  52.2413000  14.0893000
  11.5750000  51.2583000  13.6983000  23.4000000  42.7573000  18.8493000
  22.5130000  42.4193000  18.9723000  23.9700000  42.0253000  19.0863000
   9.8570000  33.9783000  16.6023000   9.7730000  33.3713000  15.8673000
   9.0350000  34.4693000  16.6033000  16.9310000  47.4173000  15.8163000
  16.8580000  48.2223000  16.3283000  16.4880000  47.6163000  14.9903000
  16.7190000  46.6543000   9.3263000  15.9360000  47.1963000   9.4203000
  17.4190000  47.1713000   9.7253000  20.0290000  32.4643000  11.9693000
  20.5260000  31.7113000  11.6493000  19.2580000  32.5003000  11.4043000
  27.8820000  38.1683000  13.6113000  27.8710000  39.0503000  13.2413000
  27.0140000  37.8153000  13.4173000  19.3900000  47.3163000  17.9713000
  20.1030000  47.9503000  17.8993000  18.8990000  47.4123000  17.1553000
  21.1120000  41.2213000   9.5433000  20.1780000  41.3413000   9.3743000
  21.2900000  40.3183000   9.2793000  16.6130000  34.6053000  11.6963000
  16.2420000  34.0523000  12.3853000  17.1090000  34.0013000  11.1443000
  24.4990000  37.0623000  10.0783000  24.9650000  37.8953000  10.0043000
  24.9500000  36.5973000  10.7833000  14.4420000  45.0653000  18.7923000
  15.1430000  45.6993000  18.9453000  13.9710000  45.4063000  18.0323000
  22.5670000  43.4073000   7.0773000  22.8430000  43.2923000   7.9863000
  21.6970000  43.0093000   7.0383000  22.4710000  29.4303000  14.1173000
  21.5570000  29.6613000  14.2853000  22.9000000  29.5143000  14.9693000
  22.2420000  37.6193000  16.6173000  21.5890000  37.8673000  15.9623000
  22.6200000  36.8063000  16.2833000  19.2020000  47.6553000  10.7203000
  19.3850000  46.8383000  11.1833000  20.0260000  47.8723000  10.2833000
  19.5370000  46.5823000   7.9823000  20.0650000  46.0713000   7.3693000
  19.7990000  46.2663000   8.8463000  18.2900000  38.3613000  23.1043000
  17.6150000  38.2613000  23.7743000  19.1130000  38.2053000  23.5673000
  10.0380000  44.5993000  15.7253000  10.6240000  43.8533000  15.8583000
   9.8410000  44.9093000  16.6093000  17.0330000  49.6683000  17.3403000
  17.5850000  49.8313000  18.1043000  17.3730000  50.2593000  16.6683000
  12.0090000  32.0163000  17.9423000  12.0730000  32.8773000  17.5303000
  11.9460000  31.4033000  17.2093000  11.4840000  34.0883000  21.5893000
  12.1120000  33.7063000  22.2033000  10.6270000  33.8693000  21.9553000
  21.8840000  44.4943000  23.1943000  22.4280000  45.1073000  22.7003000
  21.3030000  45.0523000  23.7113000  20.1700000  47.6163000  14.3263000
  20.0450000  46.8153000  13.8173000  20.8270000  48.1113000  13.8373000
  11.7900000  33.9713000  13.5043000  11.0690000  34.5853000  13.3643000
  12.5800000  34.5073000  13.4253000  22.2330000  45.4173000  15.9543000
  21.2860000  45.2983000  15.8823000  22.5810000  44.5293000  16.0373000
  14.5930000  31.3073000  19.7783000  15.1160000  31.5533000  20.5403000
  14.3740000  32.1393000  19.3583000  19.2380000  45.2123000  12.1543000
  19.0900000  44.2843000  12.3353000  20.0630000  45.2353000  11.6703000
  22.8410000  46.0353000  13.2413000  23.7660000  45.8303000  13.1033000
  22.6730000  45.7873000  14.1503000  15.7980000  32.2483000  17.4633000
  15.4580000  31.4493000  17.8653000  15.0920000  32.5483000  16.8903000
  16.4500000  29.3333000  15.9153000  17.2730000  28.8593000  15.7933000
  16.6940000  30.1123000  16.4153000  13.9740000  36.0253000  13.7253000
  13.8280000  36.3393000  14.6173000  13.4960000  36.6433000  13.1723000
  15.8330000  33.0153000  13.7733000  15.8200000  32.1193000  13.4363000
  16.5510000  33.0223000  14.4073000  17.6860000  33.4493000  15.8183000
  17.4280000  34.3713000  15.8163000  17.1550000  33.0523000  16.5083000
  22.6310000  46.5543000   8.5973000  22.8040000  45.9893000   7.8443000
  23.1240000  47.3543000   8.4153000   8.4480000  38.5653000  16.6633000
   7.9040000  39.3413000  16.7953000   9.3260000  38.9123000  16.5053000
  28.4850000  39.3183000  10.2163000  28.9280000  38.5683000   9.8183000
  27.6070000  39.3093000   9.8333000  23.6180000  45.8713000   5.6973000
  24.3130000  46.4913000   5.9153000  23.9600000  45.0203000   5.9723000
   9.2350000  37.6923000  19.5563000   8.4930000  37.8413000  20.1433000
   8.9140000  37.9533000  18.6933000  25.5170000  43.3213000   7.2253000
  26.0420000  43.6593000   6.5003000  25.4300000  42.3853000   7.0423000
  17.1790000  47.2343000  19.3543000  17.4880000  46.9893000  20.2273000
  17.9770000  47.4393000  18.8663000  17.2010000  49.3883000  11.5853000
  16.7620000  48.8953000  12.2783000  17.9520000  48.8453000  11.3443000
   9.6810000  45.5793000  11.5873000  10.5060000  45.2793000  11.2073000
   9.3300000  44.8103000  12.0363000  14.6490000  44.9323000  13.6573000
  14.0270000  44.2693000  13.3573000  15.3190000  44.9583000  12.9753000
   7.8810000  43.4983000  12.5463000   7.0450000  43.0703000  12.3653000
   7.8540000  43.6913000  13.4833000  14.7210000  33.4103000  23.2503000
  14.7700000  34.2863000  22.8683000  15.2630000  32.8673000  22.6783000
  25.2070000  43.9543000  22.5313000  24.4160000  43.9363000  21.9913000
  24.9700000  44.4933000  23.2853000  25.3260000  40.8033000  19.8443000
  25.3760000  40.6383000  20.7853000  25.2180000  39.9363000  19.4543000
  22.6170000  36.7863000  21.1603000  23.5180000  36.6473000  20.8683000
  22.6920000  36.9523000  22.1003000  16.9510000  34.1633000  20.0053000
  16.0810000  34.4563000  19.7333000  17.1870000  34.7473000  20.7263000
  26.8280000  43.2233000  20.0883000  26.5370000  43.5863000  20.9243000
  26.2160000  42.5103000  19.9093000  28.0280000  40.7883000  12.6083000
  28.8630000  41.2273000  12.7723000  28.1640000  40.3123000  11.7893000
  25.0770000  38.3463000  18.5563000  25.5520000  38.5393000  17.7483000
  24.1540000  38.4023000  18.3103000  19.6550000  30.3813000  17.5223000
  20.1730000  31.1173000  17.1963000  19.3010000  30.6873000  18.3563000
  23.7770000  35.2233000  16.7893000  24.7290000  35.3223000  16.8103000
  23.6080000  34.4303000  17.2993000  21.7990000  32.3083000  16.9753000
  21.2040000  32.5893000  16.2793000  21.5140000  32.7983000  17.7473000
  20.9290000  46.2603000   5.7353000  21.8620000  46.1953000   5.9383000
  20.8420000  47.0963000   5.2773000  23.5580000  45.5773000   2.6953000
  23.4800000  45.2433000   3.5893000  24.3790000  46.0693000   2.6953000
  26.2560000  38.4433000  15.9033000  26.2240000  37.5053000  16.0893000
  26.8660000  38.5223000  15.1703000  26.4050000  35.2343000  15.9493000
  25.8890000  34.4503000  15.7623000  27.2890000  34.9063000  16.1143000
  24.0670000  28.9783000  11.9093000  23.8690000  28.6703000  12.7933000
  24.6760000  29.7053000  12.0383000  32.0740000  39.5053000  15.0443000
  32.8040000  39.2433000  15.6053000  31.4640000  38.7683000  15.0843000
  30.1550000  37.6463000  15.6413000  29.4290000  37.5113000  15.0333000
  29.7400000  37.9533000  16.4473000  17.9780000  41.3653000  23.4063000
  18.8990000  41.5423000  23.6003000  17.9430000  40.4203000  23.2543000
  10.9740000  39.2753000  16.0483000  11.1930000  40.2063000  16.0673000
  11.3870000  38.9163000  16.8343000  15.8470000  34.8483000  25.4383000
  15.7470000  35.7973000  25.3703000  15.6290000  34.5203000  24.5663000
   7.0650000  40.1793000  14.3013000   6.3720000  39.7643000  13.7883000
   7.8130000  40.2213000  13.7043000  21.6520000  30.3703000  11.3683000
  22.1520000  30.4823000  10.5603000  22.2960000  30.0663000  12.0083000
  15.7100000  38.2783000  24.2553000  15.2270000  39.0783000  24.4613000
  15.7960000  38.2893000  23.3023000   8.9790000  40.1113000  12.1773000
   8.9560000  40.2093000  11.2253000   9.2890000  40.9573000  12.4993000
  11.6380000  42.1683000  16.2923000  12.5920000  42.1373000  16.2253000
  11.4390000  41.7073000  17.1073000  12.2280000  40.7383000  18.8593000
  13.0470000  41.2333000  18.8823000  12.5010000  39.8223000  18.8313000
  25.3360000  33.1543000  11.9373000  26.1120000  33.6443000  12.2103000
  24.6110000  33.5803000  12.3943000  27.7730000  33.8673000  12.9953000
  28.3670000  33.6263000  12.2843000  27.8460000  33.1483000  13.6223000
  21.9580000  38.6453000   8.4373000  21.9020000  39.1023000   7.5973000
  22.5110000  37.8843000   8.2593000  25.7690000  34.4343000   9.2623000
  25.5130000  34.0333000  10.0933000  25.1440000  35.1483000   9.1373000
  30.0800000  37.1733000  11.7693000  29.5200000  37.2433000  12.5423000
  29.4740000  36.9983000  11.0493000  13.1500000  48.6073000  13.5213000
  13.0330000  49.5523000  13.4193000  12.3290000  48.3043000  13.9093000
  23.0370000  43.3323000   4.3663000  23.8720000  42.9003000   4.1843000
  22.8760000  43.1603000   5.2943000  22.6920000  39.8353000   5.7323000
  22.6370000  39.6703000   4.7913000  22.0660000  40.5433000   5.8883000
   7.4810000  35.0723000  19.5583000   8.1270000  34.5623000  20.0473000
   7.2730000  35.8093000  20.1323000  20.0060000  42.1403000  25.0573000
  20.8760000  42.3143000  24.6963000  19.5270000  42.9603000  24.9353000
  14.1750000  49.2603000  16.7363000  15.0780000  49.2923000  17.0533000
  13.9490000  48.3303000  16.7513000  11.8210000  32.2193000  23.6563000
  12.6840000  31.8633000  23.8663000  11.2470000  31.8803000  24.3433000
  31.6660000  53.8493000  14.4623000  32.3040000  53.7303000  13.7583000
  31.5480000  54.7973000  14.5213000  28.4750000  53.8023000  14.3983000
  28.1360000  53.6863000  13.5103000  29.3440000  53.4013000  14.3783000
  24.3330000  55.6553000  10.3883000  23.7700000  55.5643000   9.6193000
  24.2190000  54.8353000  10.8683000  28.9570000  54.9553000  20.3573000
  28.9450000  54.5613000  19.4853000  29.1190000  54.2223000  20.9503000
  21.8800000  57.1513000  13.2263000  22.6720000  56.8103000  12.8113000
  22.1190000  57.2603000  14.1463000  25.6770000  57.7393000  19.3053000
  25.3860000  58.6443000  19.1893000  26.3130000  57.7813000  20.0193000
  26.6030000  55.1173000  15.8953000  27.1990000  54.8923000  15.1803000
  26.6600000  54.3753000  16.4973000  31.2200000  51.5743000  11.5373000
  32.0060000  51.1563000  11.1863000  31.4840000  52.4793000  11.7053000
  36.6210000  51.5123000  12.4403000  37.3530000  50.9423000  12.6743000
  35.8650000  51.1243000  12.8813000  28.2380000  53.9343000   9.6373000
  27.8740000  53.4083000  10.3483000  29.0950000  53.5443000   9.4633000
  34.1430000  45.2243000  16.9003000  33.8120000  46.0933000  16.6763000
  33.5480000  44.9083000  17.5793000  30.6360000  57.4253000  16.3003000
  30.3360000  58.3283000  16.1913000  30.2910000  57.1583000  17.1523000
  24.0880000  53.8773000  12.3333000  23.1630000  53.7443000  12.5413000
  24.3360000  54.6563000  12.8303000  34.0360000  49.9433000  13.9793000
  33.1280000  49.8753000  13.6853000  33.9850000  50.4213000  14.8073000
  21.4480000  53.5203000  13.1683000  21.5780000  53.7733000  14.0823000
  20.7680000  54.1133000  12.8483000  28.1100000  51.3623000  21.9233000
  27.3330000  51.9223000  21.9133000  28.7490000  51.8483000  22.4443000
  35.9020000  48.1453000  15.7573000  35.2600000  48.4383000  15.1113000
  35.3980000  48.0303000  16.5623000  26.3650000  54.1713000  21.4853000
  27.1060000  54.7093000  21.2083000  25.6580000  54.7983000  21.6423000
  31.8400000  56.3143000  20.0823000  32.2490000  55.8723000  19.3373000
  31.1180000  55.7393000  20.3353000  28.1930000  51.2513000  17.4553000
  29.0400000  51.6753000  17.5993000  28.1330000  50.5943000  18.1493000
  32.1630000  56.8743000  13.8373000  31.5340000  57.0393000  13.1353000
  31.7760000  57.2883000  14.6083000  31.3430000  48.9123000  19.1133000
  31.0990000  49.6663000  18.5773000  31.6190000  49.2903000  19.9483000
  33.2970000  55.4553000  17.7913000  33.5090000  56.0993000  17.1143000
  33.2500000  54.6223000  17.3233000  30.9000000  48.0673000  14.6953000
  30.0380000  48.3653000  14.9863000  30.9260000  48.2843000  13.7633000
  27.7160000  56.6113000  11.1023000  28.1800000  56.8903000  10.3123000
  27.4520000  55.7103000  10.9193000  24.6080000  56.1593000  14.0403000
  25.1790000  56.5873000  13.4023000  25.1990000  55.8773000  14.7383000
  26.6530000  52.7343000   7.9113000  27.3550000  53.1863000   8.3783000
  26.3210000  52.0923000   8.5393000  25.1010000  51.3253000  22.2863000
  24.4710000  52.0073000  22.5203000  24.9950000  51.2133000  21.3413000
  20.3950000  50.9923000  13.2133000  19.6050000  51.2483000  12.7373000
  20.8870000  51.8073000  13.3183000  34.4120000  58.3333000  15.9633000
  35.2340000  57.9313000  15.6813000  34.4080000  58.2293000  16.9153000
  22.3470000  51.3573000  10.1713000  21.5500000  51.4683000  10.6893000
  22.1190000  51.6953000   9.3053000  28.1770000  57.8813000  18.1193000
  28.2420000  58.3433000  18.9553000  27.4690000  57.2513000  18.2483000
  18.6790000  51.2453000  15.6443000  18.9300000  52.1303000  15.9103000
  19.2150000  51.0663000  14.8723000  24.3790000  45.6273000  24.6493000
  23.9860000  45.0743000  25.3233000  25.1960000  45.9383000  25.0393000
  21.3450000  57.0653000   8.5603000  21.8580000  57.8603000   8.7113000
  21.9970000  56.3683000   8.4933000  23.1550000  60.1823000  10.6423000
  23.3310000  61.1043000  10.4543000  23.9500000  59.8683000  11.0723000
  27.2960000  47.0433000  22.2413000  28.0370000  47.6433000  22.1613000
  27.5280000  46.3013000  21.6823000  22.4400000  52.2283000  20.5183000
  22.3250000  51.3273000  20.8193000  21.5840000  52.4753000  20.1673000
  29.5190000  60.1703000  22.1173000  29.0750000  59.3843000  21.7993000
  30.1810000  60.3583000  21.4523000  24.2780000  61.7003000  16.6433000
  24.8290000  61.5713000  15.8713000  23.4390000  61.9993000  16.2933000
  31.6170000  60.4503000  20.1453000  31.5990000  61.2713000  19.6533000
  32.5390000  60.3263000  20.3703000  28.0750000  57.9653000  20.9883000
  28.6070000  57.2043000  20.7583000  27.5460000  57.6723000  21.7303000
  31.2420000  43.0713000  16.5173000  30.8980000  43.9613000  16.4413000
  31.6090000  42.8813000  15.6543000  19.3100000  55.3943000   9.3363000
  20.1480000  55.8043000   9.1193000  19.4880000  54.4543000   9.3063000
  28.7910000  47.9073000  10.0833000  27.9350000  47.5173000   9.9033000
  29.2040000  47.9863000   9.2233000  30.3210000  45.4413000  14.4823000
  29.8180000  45.4043000  13.6693000  30.6140000  46.3513000  14.5423000
  26.5650000  45.5253000  13.4893000  27.4310000  45.3293000  13.1293000
  26.6330000  45.2963000  14.4163000  30.9950000  50.9343000   6.8503000
  30.6900000  51.2493000   7.7013000  31.9480000  51.0133000   6.8933000
  34.4190000  55.2883000  13.6163000  33.7610000  55.9783000  13.7043000
  35.2230000  55.6783000  13.9603000  24.1720000  47.7553000  10.8603000
  24.7460000  47.5333000  10.1283000  24.7590000  47.8243000  11.6133000
  33.2300000  53.6433000  11.6673000  33.7430000  54.2763000  12.1693000
  33.8800000  53.0433000  11.3013000  24.4990000  49.7863000   4.8803000
  23.6620000  50.1233000   5.2013000  24.3590000  49.6513000   3.9433000
  26.4740000  44.6303000   9.5883000  25.8200000  44.3143000   8.9633000
  26.4320000  44.0073000  10.3143000  29.7080000  51.1183000  13.9133000
  28.7900000  51.3393000  13.7553000  30.1240000  51.1923000  13.0543000
  30.4910000  52.5173000   9.0433000  31.2380000  53.0293000   8.7333000
  30.7600000  52.1953000   9.9033000  32.9390000  49.5533000  11.0253000
  32.2010000  49.0403000  11.3563000  33.1920000  49.1133000  10.2133000
  33.0400000  42.3303000  11.6193000  33.3460000  41.4703000  11.3313000
  33.7660000  42.9223000  11.4193000  19.3330000  52.7333000  10.0073000
  19.1350000  52.1403000   9.2823000  18.7770000  52.4293000  10.7253000
  27.3120000  52.6263000  12.1263000  27.3670000  51.6733000  12.0513000
  26.5010000  52.7823000  12.6113000  25.2520000  51.2433000   9.8853000
  24.4380000  51.5433000  10.2923000  25.7480000  50.8493000  10.6033000
  30.8490000  51.7083000  18.7173000  31.2040000  51.9353000  19.5763000
  31.4960000  52.0393000  18.0953000  24.7430000  48.8153000  15.5023000
  25.3830000  48.6743000  14.8043000  23.9110000  48.5293000  15.1253000
  36.6060000  56.8973000  14.4333000  37.0390000  56.8053000  15.2813000
  37.3190000  56.8733000  13.7953000  25.5190000  58.1153000  11.6153000
  26.3130000  57.6203000  11.4133000  24.8080000  57.5873000  11.2523000
  30.3390000  60.4973000  15.9663000  30.3920000  61.0663000  16.7343000
  29.4700000  60.6673000  15.6023000  21.8270000  52.2603000   7.6913000
  20.8970000  52.1983000   7.9083000  21.9230000  51.7373000   6.8953000
  21.7460000  48.7853000  10.2793000  22.0070000  49.7003000  10.1703000
  22.5680000  48.3183000  10.4293000  23.2180000  50.1993000  17.4493000
  23.8910000  49.9913000  16.8003000  22.3910000  50.0013000  17.0093000
  37.4670000  56.9393000  16.9663000  37.6610000  57.8443000  17.2123000
  37.3670000  56.4803000  17.8003000  29.1210000  46.8253000  19.4653000
  28.4740000  47.5243000  19.3723000  29.8910000  47.2593000  19.8333000
  32.5290000  57.0903000  22.5403000  32.3770000  56.8613000  21.6233000
  32.5190000  58.0473000  22.5543000  29.2970000  54.6633000  17.5253000
  30.2270000  54.8143000  17.3523000  28.8760000  54.7523000  16.6703000
  28.0960000  58.6883000  15.2953000  27.9570000  58.3203000  16.1673000
  27.3080000  59.2033000  15.1233000  29.6470000  58.0663000  12.6843000
  29.3120000  58.0273000  13.5803000  29.1470000  57.4013000  12.2113000
  23.6210000  53.4733000  18.2093000  23.4830000  52.7413000  18.8103000
  24.5320000  53.3843000  17.9273000  26.2490000  53.1853000  17.6973000
  26.9590000  52.5453000  17.6563000  26.2060000  53.4373000  18.6203000
  34.2380000  60.1223000  20.6183000  34.1790000  59.4383000  19.9513000
  34.6400000  60.8643000  20.1663000  24.9620000  50.1723000  19.5173000
  24.4260000  49.7213000  20.1693000  24.3740000  50.3063000  18.7743000
  23.2570000  66.9383000  13.4113000  23.4970000  67.5703000  14.0893000
  22.4140000  66.5873000  13.6983000  34.2400000  58.0863000  18.8493000
  33.3520000  57.7493000  18.9723000  34.8100000  57.3543000  19.0863000
  20.6960000  49.3073000  16.6023000  20.6120000  48.7003000  15.8673000
  19.8740000  49.7983000  16.6033000  27.7700000  62.7463000  15.8163000
  27.6970000  63.5523000  16.3283000  27.3280000  62.9453000  14.9903000
  30.8690000  47.7933000  11.9693000  31.3650000  47.0403000  11.6493000
  30.0970000  47.8293000  11.4043000  38.7220000  53.4973000  13.6113000
  38.7100000  54.3793000  13.2413000  37.8530000  53.1443000  13.4173000
  30.2300000  62.6453000  17.9713000  30.9430000  63.2793000  17.8993000
  29.7390000  62.7413000  17.1553000  27.4520000  49.9343000  11.6963000
  27.0820000  49.3823000  12.3853000  27.9480000  49.3303000  11.1443000
  35.3390000  52.3923000  10.0783000  35.8050000  53.2243000  10.0043000
  35.7900000  51.9263000  10.7833000  25.2810000  60.3943000  18.7923000
  25.9820000  61.0283000  18.9453000  24.8100000  60.7363000  18.0323000
  33.3100000  44.7603000  14.1173000  32.3970000  44.9903000  14.2853000
  33.7400000  44.8443000  14.9693000  33.0810000  52.9493000  16.6173000
  32.4280000  53.1963000  15.9623000  33.4590000  52.1353000  16.2833000
  29.1300000  53.6913000  23.1043000  28.4540000  53.5903000  23.7743000
  29.9530000  53.5353000  23.5673000  20.8780000  59.9283000  15.7253000
  21.4630000  59.1823000  15.8583000  20.6800000  60.2383000  16.6093000
  15.4690000  52.4983000  14.4463000  15.5080000  51.9653000  15.2393000
  14.9640000  51.9723000  13.8273000  27.8720000  64.9973000  17.3403000
  28.4240000  65.1603000  18.1043000  28.2130000  65.5883000  16.6683000
  22.8490000  47.3453000  17.9423000  22.9130000  48.2063000  17.5303000
  22.7850000  46.7323000  17.2093000  22.3240000  49.4173000  21.5893000
  22.9510000  49.0353000  22.2033000  21.4670000  49.1993000  21.9553000
  32.7230000  59.8233000  23.1943000  33.2670000  60.4363000  22.7003000
  32.1420000  60.3813000  23.7113000  31.0090000  62.9463000  14.3263000
  30.8840000  62.1443000  13.8173000  31.6670000  63.4403000  13.8373000
  22.6300000  49.3003000  13.5043000  21.9080000  49.9143000  13.3643000
  23.4190000  49.8363000  13.4253000  33.0720000  60.7463000  15.9543000
  32.1250000  60.6273000  15.8823000  33.4210000  59.8593000  16.0373000
  25.4320000  46.6363000  19.7783000  25.9560000  46.8823000  20.5403000
  25.2140000  47.4683000  19.3583000  20.8290000  48.9063000   7.6453000
  20.5000000  48.0263000   7.4623000  21.1830000  48.8513000   8.5323000
  23.9430000  49.1933000   8.0123000  24.2830000  49.7223000   7.2903000
  24.3910000  49.5323000   8.7883000  26.6380000  47.5773000  17.4633000
  26.2970000  46.7783000  17.8653000  25.9320000  47.8773000  16.8903000
  27.2890000  44.6623000  15.9153000  28.1120000  44.1883000  15.7933000
  27.5330000  45.4413000  16.4153000  25.9300000  47.6913000   6.2123000
  26.6510000  48.0693000   5.7083000  25.3070000  48.4103000   6.3153000
  30.0730000  48.3953000   7.1483000  30.2900000  49.2783000   6.8463000
  29.5930000  48.0043000   6.4183000  24.8130000  51.3543000  13.7253000
  24.6680000  51.6683000  14.6173000  24.3360000  51.9733000  13.1723000
  26.6730000  48.3443000  13.7733000  26.6590000  47.4483000  13.4363000
  27.3900000  48.3513000  14.4073000  28.5250000  48.7783000  15.8183000
  28.2670000  49.7003000  15.8163000  27.9940000  48.3813000  16.5083000
  19.2880000  53.8953000  16.6633000  18.7430000  54.6713000  16.7953000
  20.1660000  54.2423000  16.5053000  26.0760000  47.2263000   9.0413000
  26.1980000  46.2973000   9.2413000  25.7870000  47.2403000   8.1293000
  28.9460000  44.9113000  12.1783000  28.9680000  44.9753000  11.2233000
  29.3620000  44.0723000  12.3723000  20.0740000  53.0223000  19.5563000
  19.3320000  53.1703000  20.1433000  19.7540000  53.2823000  18.6933000
  28.0190000  62.5633000  19.3543000  28.3270000  62.3183000  20.2273000
  28.8160000  62.7683000  18.8663000  20.5200000  60.9083000  11.5873000
  21.3460000  60.6083000  11.2073000  20.1690000  60.1393000  12.0363000
  25.4880000  60.2613000  13.6573000  24.8660000  59.5983000  13.3573000
  26.1590000  60.2873000  12.9753000  18.7210000  58.8273000  12.5463000
  17.8840000  58.3993000  12.3653000  18.6930000  59.0203000  13.4833000
  25.5610000  48.7393000  23.2503000  25.6090000  49.6153000  22.8683000
  26.1030000  48.1973000  22.6783000  36.0460000  59.2833000  22.5313000
  35.2560000  59.2653000  21.9913000  35.8090000  59.8223000  23.2853000
  36.1660000  56.1323000  19.8443000  36.2160000  55.9673000  20.7853000
  36.0570000  55.2653000  19.4543000  33.4560000  52.1153000  21.1603000
  34.3570000  51.9763000  20.8683000  33.5310000  52.2813000  22.1003000
  27.7910000  49.4923000  20.0053000  26.9210000  49.7853000  19.7333000
  28.0260000  50.0763000  20.7263000  37.6680000  58.5523000  20.0883000
  37.3760000  58.9153000  20.9243000  37.0550000  57.8393000  19.9093000
  35.9160000  53.6753000  18.5563000  36.3920000  53.8683000  17.7483000
  34.9930000  53.7313000  18.3103000  22.8050000  54.8383000   8.1393000
  22.5590000  53.9343000   8.3373000  22.9740000  54.8393000   7.1973000
  30.4940000  45.7103000  17.5223000  31.0130000  46.4463000  17.1963000
  30.1400000  46.0163000  18.3563000  22.0740000  50.5713000   5.6383000
  21.3810000  50.6453000   4.9823000  21.8290000  49.8073000   6.1603000
  30.7460000  42.1303000  13.0423000  31.0260000  41.4623000  13.6683000
  31.5310000  42.3233000  12.5293000  34.6170000  50.5523000  16.7893000
  35.5680000  50.6523000  16.8103000  34.4470000  49.7603000  17.2993000
  32.6380000  47.6373000  16.9753000  32.0430000  47.9183000  16.2793000
  32.3530000  48.1273000  17.7473000  37.0950000  53.7723000  15.9033000
  37.0630000  52.8343000  16.0893000  37.7050000  53.8513000  15.1703000
  37.2450000  50.5643000  15.9493000  36.7290000  49.7793000  15.7623000
  38.1290000  50.2353000  16.1143000  34.9060000  44.3083000  11.9093000
  34.7080000  43.9993000  12.7933000  35.5160000  45.0343000  12.0383000
  42.9130000  54.8343000  15.0443000  43.6430000  54.5733000  15.6053000
  42.3040000  54.0973000  15.0843000  28.8180000  56.6943000  23.4063000
  29.7380000  56.8723000  23.6003000  28.7830000  55.7493000  23.2543000
  18.0360000  51.8883000  12.3313000  17.7160000  51.0343000  12.0393000
  17.4890000  52.1033000  13.0873000  21.8140000  54.6043000  16.0483000
  22.0320000  55.5363000  16.0673000  22.2260000  54.2453000  16.8343000
  28.7340000  45.1113000   8.0363000  27.9240000  44.7653000   8.4113000
  29.4230000  44.8013000   8.6253000  30.6630000  44.1893000   9.6583000
  31.2160000  44.6083000  10.3173000  30.9000000  43.2623000   9.7003000
  26.6870000  50.1773000  25.4383000  26.5860000  51.1273000  25.3703000
  26.4690000  49.8493000  24.5663000  17.9050000  55.5083000  14.3013000
  17.2110000  55.0933000  13.7883000  18.6520000  55.5503000  13.7043000
  34.0410000  46.2993000   9.1663000  33.4610000  46.9573000   8.7843000
  33.7750000  45.4763000   8.7553000  32.4920000  45.6993000  11.3683000
  32.9910000  45.8113000  10.5603000  33.1350000  45.3953000  12.0083000
  26.5500000  53.6073000  24.2553000  26.0660000  54.4073000  24.4613000
  26.6360000  53.6183000  23.3023000  19.8180000  55.4403000  12.1773000
  19.7950000  55.5393000  11.2253000  20.1280000  56.2863000  12.4993000
  22.4770000  57.4973000  16.2923000  23.4310000  57.4663000  16.2253000
  22.2780000  57.0363000  17.1073000  23.0670000  56.0683000  18.8593000
  23.8860000  56.5623000  18.8823000  23.3410000  55.1513000  18.8313000
  32.8240000  48.4593000   8.2223000  31.9360000  48.7443000   8.0043000
  33.2390000  48.2983000   7.3743000  36.1750000  48.4833000  11.9373000
  36.9510000  48.9733000  12.2103000  35.4500000  48.9093000  12.3943000
  38.6120000  49.1963000  12.9953000  39.2070000  48.9563000  12.2843000
  38.6850000  48.4773000  13.6223000  36.6080000  49.7633000   9.2623000
  36.3520000  49.3633000  10.0933000  35.9840000  50.4773000   9.1373000
  40.9190000  52.5033000  11.7693000  40.3590000  52.5723000  12.5423000
  40.3140000  52.3273000  11.0493000  23.9890000  63.9363000  13.5213000
  23.8720000  64.8813000  13.4193000  23.1680000  63.6343000  13.9093000
  18.3200000  50.4013000  19.5583000  18.9660000  49.8913000  20.0473000
  18.1120000  51.1383000  20.1323000  30.8460000  57.4693000  25.0573000
  31.7150000  57.6433000  24.6963000  30.3660000  58.2893000  24.9353000
  26.8410000  44.6653000   5.3113000  26.8290000  45.6103000   5.4673000
  27.7330000  44.4823000   5.0163000  25.0140000  64.5893000  16.7363000
  25.9170000  64.6213000  17.0533000  24.7880000  63.6593000  16.7513000
  26.7700000  63.3423000  13.3973000  25.8190000  63.3423000  13.2843000
  27.0730000  62.5963000  12.8813000  30.6560000  41.2603000   9.5653000
  29.8890000  40.7053000   9.7113000  31.0670000  41.3323000  10.4273000
  22.6600000  47.5483000  23.6563000  23.5230000  47.1923000  23.8663000
  22.0870000  47.2093000  24.3433000  38.9500000  66.6923000  21.9233000
  38.1730000  67.2513000  21.9133000  39.5890000  67.1773000  22.4443000
  37.2040000  69.5003000  21.4853000  37.9460000  70.0393000  21.2083000
  36.4980000  70.1273000  21.6423000  35.9400000  66.6543000  22.2863000
  35.3100000  67.3363000  22.5203000  35.8340000  66.5423000  21.3413000
  29.5190000  66.5743000  15.6443000  29.7690000  67.4593000  15.9103000
  30.0550000  66.3953000  14.8723000  35.2180000  60.9563000  24.6493000
  34.8250000  60.4033000  25.3233000  36.0350000  61.2673000  25.0393000
  38.1350000  62.3723000  22.2413000  38.8760000  62.9733000  22.1613000
  38.3670000  61.6303000  21.6823000  33.2790000  67.5583000  20.5183000
  33.1650000  66.6563000  20.8193000  32.4240000  67.8043000  20.1673000
  42.0810000  58.4003000  16.5173000  41.7370000  59.2903000  16.4413000
  42.4490000  58.2103000  15.6543000  34.0580000  65.5283000  17.4493000
  34.7300000  65.3203000  16.8003000  33.2310000  65.3303000  17.0093000
  39.9600000  62.1543000  19.4653000  39.3130000  62.8533000  19.3723000
  40.7300000  62.5883000  19.8333000  35.8020000  65.5013000  19.5173000
  35.2650000  65.0503000  20.1693000  35.2130000  65.6363000  18.7743000
  31.5360000  64.6373000  16.6023000  31.4510000  64.0293000  15.8673000
  30.7140000  65.1273000  16.6033000  39.9690000  69.0203000  23.1043000
  39.2930000  68.9193000  23.7743000  40.7920000  68.8643000  23.5673000
  26.3090000  67.8283000  14.4463000  26.3470000  67.2943000  15.2393000
  25.8030000  67.3013000  13.8273000  33.6880000  62.6743000  17.9423000
  33.7520000  63.5363000  17.5303000  33.6250000  62.0613000  17.2093000
  33.1630000  64.7463000  21.5893000  33.7900000  64.3643000  22.2033000
  32.3060000  64.5283000  21.9553000  36.2720000  61.9653000  19.7783000
  36.7950000  62.2113000  20.5403000  36.0530000  62.7973000  19.3583000
  37.4770000  62.9063000  17.4633000  37.1370000  62.1073000  17.8653000
  36.7710000  63.2073000  16.8903000  38.1290000  59.9913000  15.9153000
  38.9510000  59.5173000  15.7933000  38.3720000  60.7703000  16.4153000
  30.9140000  68.3513000  19.5563000  30.1720000  68.4993000  20.1433000
  30.5930000  68.6123000  18.6933000  36.4000000  64.0683000  23.2503000
  36.4490000  64.9443000  22.8683000  36.9420000  63.5263000  22.6783000
  38.6300000  64.8213000  20.0053000  37.7600000  65.1153000  19.7333000
  38.8660000  65.4053000  20.7263000  41.3340000  61.0393000  17.5223000
  41.8520000  61.7753000  17.1963000  40.9790000  61.3463000  18.3563000
  39.6570000  72.0233000  23.4063000  40.5770000  72.2013000  23.6003000
  39.6220000  71.0793000  23.2543000  37.5260000  65.5063000  25.4383000
  37.4260000  66.4563000  25.3703000  37.3080000  65.1783000  24.5663000
  37.3890000  68.9363000  24.2553000  36.9060000  69.7363000  24.4613000
  37.4750000  68.9473000  23.3023000  29.1600000  65.7313000  19.5583000
  29.8060000  65.2203000  20.0473000  28.9520000  66.4673000  20.1323000
  41.6850000  72.7993000  25.0573000  42.5540000  72.9733000  24.6963000
  41.2060000  73.6183000  24.9353000  33.5000000  62.8773000  23.6563000
  34.3630000  62.5213000  23.8663000  32.9260000  62.5393000  24.3433000
  26.3650000  31.1773000   8.2093000  27.1060000  31.7163000   7.9333000
  25.6580000  31.8043000   8.3663000  31.8400000  33.3203000   6.8063000
  32.2490000  32.8783000   6.0623000  31.1180000  32.7453000   7.0603000
  34.4120000  35.3393000   2.6883000  35.2340000  34.9373000   2.4063000
  34.4080000  35.2363000   3.6393000  29.5190000  37.1763000   8.8423000
  29.0750000  36.3903000   8.5243000  30.1810000  37.3643000   8.1763000
  31.6170000  37.4573000   6.8703000  31.5990000  38.2783000   6.3783000
  32.5390000  37.3323000   7.0953000  28.0750000  34.9713000   7.7123000
  28.6070000  34.2103000   7.4823000  27.5460000  34.6783000   8.4553000
  37.4670000  33.9463000   3.6913000  37.6610000  34.8503000   3.9373000
  37.3670000  33.4863000   4.5253000  32.5290000  34.0963000   9.2653000
  32.3770000  33.8673000   8.3483000  32.5190000  35.0533000   9.2783000
  34.2380000  37.1283000   7.3433000  34.1790000  36.4443000   6.6763000
  34.6400000  37.8703000   6.8913000  34.2400000  35.0923000   5.5743000
  33.3520000  34.7553000   5.6973000  34.8100000  34.3603000   5.8113000
  30.2300000  39.6513000   4.6963000  30.9430000  40.2863000   4.6243000
  29.7390000  39.7473000   3.8803000  29.1300000  30.6973000   9.8283000
  28.4540000  30.5963000  10.4993000  29.9530000  30.5413000  10.2923000
  27.8720000  42.0043000   4.0643000  28.4240000  42.1673000   4.8293000
  28.2130000  42.5943000   3.3923000  32.7230000  36.8303000   9.9193000
  33.2670000  37.4433000   9.4243000  32.1420000  37.3883000  10.4363000
  33.0720000  37.7533000   2.6783000  32.1250000  37.6333000   2.6063000
  33.4210000  36.8653000   2.7613000  28.0190000  39.5693000   6.0793000
  28.3270000  39.3243000   6.9513000  28.8160000  39.7743000   5.5913000
  36.0460000  36.2893000   9.2553000  35.2560000  36.2723000   8.7163000
  35.8090000  36.8283000  10.0103000  36.1660000  33.1393000   6.5683000
  36.2160000  32.9743000   7.5103000  36.0570000  32.2713000   6.1783000
  33.4560000  29.1223000   7.8843000  34.3570000  28.9823000   7.5933000
  33.5310000  29.2873000   8.8243000  37.6680000  35.5583000   6.8133000
  37.3760000  35.9213000   7.6493000  37.0550000  34.8453000   6.6343000
  35.9160000  30.6813000   5.2813000  36.3920000  30.8743000   4.4723000
  34.9930000  30.7373000   5.0353000  42.9130000  31.8403000   1.7683000
  43.6430000  31.5793000   2.3293000  42.3040000  31.1033000   1.8083000
  28.8180000  33.7003000  10.1303000  29.7380000  33.8783000  10.3243000
  28.7830000  32.7563000   9.9783000  26.6870000  27.1833000  12.1633000
  26.5860000  28.1333000  12.0943000  26.4690000  26.8553000  11.2913000
  26.5500000  30.6133000  10.9803000  26.0660000  31.4133000  11.1863000
  26.6360000  30.6243000  10.0263000  30.8460000  34.4763000  11.7823000
  31.7150000  34.6503000  11.4213000  30.3660000  35.2953000  11.6593000
  25.0140000  41.5953000   3.4613000  25.9170000  41.6283000   3.7773000
  24.7880000  40.6653000   3.4753000  38.9500000  43.6983000   8.6473000
  38.1730000  44.2573000   8.6383000  39.5890000  44.1833000   9.1693000
  37.2040000  46.5063000   8.2093000  37.9460000  47.0453000   7.9333000
  36.4980000  47.1333000   8.3663000  35.9400000  43.6603000   9.0113000
  35.3100000  44.3423000   9.2443000  35.8340000  43.5493000   8.0663000
  29.5190000  43.5813000   2.3693000  29.7690000  44.4653000   2.6343000
  30.0550000  43.4013000   1.5963000  35.2180000  37.9623000  11.3733000
  34.8250000  37.4093000  12.0483000  36.0350000  38.2733000  11.7643000
  38.1350000  39.3783000   8.9653000  38.8760000  39.9793000   8.8863000
  38.3670000  38.6363000   8.4073000  33.2790000  44.5643000   7.2433000
  33.1650000  43.6623000   7.5443000  32.4240000  44.8103000   6.8913000
  42.0810000  35.4063000   3.2423000  41.7370000  36.2963000   3.1663000
  42.4490000  35.2163000   2.3793000  34.0580000  42.5343000   4.1733000
  34.7300000  42.3263000   3.5253000  33.2310000  42.3373000   3.7343000
  39.9600000  39.1613000   6.1903000  39.3130000  39.8603000   6.0963000
  40.7300000  39.5943000   6.5583000  35.8020000  42.5073000   6.2423000
  35.2650000  42.0563000   6.8943000  35.2130000  42.6423000   5.4993000
  31.5360000  41.6433000   3.3273000  31.4510000  41.0353000   2.5923000
  30.7140000  42.1343000   3.3283000  39.9690000  46.0263000   9.8283000
  39.2930000  45.9253000  10.4993000  40.7920000  45.8703000  10.2923000
  33.6880000  39.6803000   4.6663000  33.7520000  40.5423000   4.2543000
  33.6250000  39.0683000   3.9343000  33.1630000  41.7533000   8.3143000
  33.7900000  41.3703000   8.9273000  32.3060000  41.5343000   8.6793000
  36.2720000  38.9713000   6.5023000  36.7950000  39.2173000   7.2653000
  36.0530000  39.8033000   6.0833000  37.4770000  39.9133000   4.1873000
  37.1370000  39.1133000   4.5893000  36.7710000  40.2133000   3.6153000
  38.1290000  36.9983000   2.6403000  38.9510000  36.5243000   2.5183000
  38.3720000  37.7773000   3.1403000  30.9140000  45.3573000   6.2813000
  30.1720000  45.5053000   6.8673000  30.5930000  45.6183000   5.4183000
  36.4000000  41.0743000   9.9753000  36.4490000  41.9513000   9.5933000
  36.9420000  40.5323000   9.4023000  38.6300000  41.8273000   6.7303000
  37.7600000  42.1213000   6.4583000  38.8660000  42.4123000   7.4503000
  41.3340000  38.0453000   4.2463000  41.8520000  38.7823000   3.9213000
  40.9790000  38.3523000   5.0813000  39.6570000  49.0293000  10.1303000
  40.5770000  49.2073000  10.3243000  39.6220000  48.0853000   9.9783000
  37.5260000  42.5133000  12.1633000  37.4260000  43.4623000  12.0943000
  37.3080000  42.1843000  11.2913000  37.3890000  45.9423000  10.9803000
  36.9060000  46.7423000  11.1863000  37.4750000  45.9533000  10.0263000
  29.1600000  42.7373000   6.2833000  29.8060000  42.2273000   6.7713000
  28.9520000  43.4743000   6.8573000  41.6850000  49.8053000  11.7823000
  42.5540000  49.9793000  11.4213000  41.2060000  50.6243000  11.6593000
  33.5000000  39.8843000  10.3803000  34.3630000  39.5273000  10.5903000
  32.9260000  39.5453000  11.0683000
  64.8038139  64.8038139  64.8038139 109.4712190 109.4712190 109.4712190
